
                                 *****************
                                 * O   R   C   A *
                                 *****************

           --- An Ab Initio, DFT and Semiempirical electronic structure package ---

                  #######################################################
                  #                        -***-                        #
                  #          Department of theory and spectroscopy      #
                  #               Directorship: Frank Neese             #
                  #        Max Planck Institute fuer Kohlenforschung    #
                  #                Kaiser Wilhelm Platz 1               #
                  #                 D-45470 Muelheim/Ruhr               #
                  #                      Germany                        #
                  #                                                     #
                  #                  All rights reserved                #
                  #                        -***-                        #
                  #######################################################


                         Program Version 4.2.0 -  RELEASE  -


 With contributions from (in alphabetic order):
   Daniel Aravena         : Magnetic Suceptibility
   Michael Atanasov       : Ab Initio Ligand Field Theory (pilot matlab implementation)
   Alexander A. Auer      : GIAO ZORA, VPT2
   Ute Becker             : Parallelization
   Giovanni Bistoni       : ED, misc. LED, open-shell LED, HFLED
   Martin Brehm           : Molecular dynamics
   Dmytro Bykov           : SCF Hessian
   Vijay G. Chilkuri      : MRCI spin determinant printing, contributions to CSF-ICE
   Dipayan Datta          : RHF DLPNO-CCSD density
   Achintya Kumar Dutta   : EOM-CC, STEOM-CC
   Dmitry Ganyushin       : Spin-Orbit,Spin-Spin,Magnetic field MRCI
   Miquel Garcia          : C-PCM Hessian, Gaussian charge scheme
   Yang Guo               : DLPNO-NEVPT2, CIM, IAO-localization
   Andreas Hansen         : Spin unrestricted coupled pair/coupled cluster methods
   Benjamin Helmich-Paris : CASSCF linear response (MC-RPA)
   Lee Huntington         : MR-EOM, pCC
   Robert Izsak           : Overlap fitted RIJCOSX, COSX-SCS-MP3, EOM
   Christian Kollmar      : KDIIS, OOCD, Brueckner-CCSD(T), CCSD density
   Simone Kossmann        : Meta GGA functionals, TD-DFT gradient, OOMP2, MP2 Hessian
   Martin Krupicka        : AUTO-CI
   Lucas Lang             : DCDCAS
   Dagmar Lenk            : GEPOL surface, SMD
   Dimitrios Liakos       : Extrapolation schemes; Compound Job, initial MDCI parallelization
   Dimitrios Manganas     : Further ROCIS development; embedding schemes
   Dimitrios Pantazis     : SARC Basis sets
   Taras Petrenko         : DFT Hessian,TD-DFT gradient, ASA, ECA, R-Raman, ABS, FL, XAS/XES, NRVS
   Peter Pinski           : DLPNO-MP2, DLPNO-MP2 Gradient
   Christoph Reimann      : Effective Core Potentials
   Marius Retegan         : Local ZFS, SOC
   Christoph Riplinger    : Optimizer, TS searches, QM/MM, DLPNO-CCSD(T), (RO)-DLPNO pert. Triples
   Tobias Risthaus        : Range-separated hybrids, TD-DFT gradient, RPA, STAB
   Michael Roemelt        : Original ROCIS implementation
   Masaaki Saitow         : Open-shell DLPNO-CCSD energy and density
   Barbara Sandhoefer     : DKH picture change effects
   Avijit Sen             : IP-ROCIS
   Kantharuban Sivalingam : CASSCF convergence, NEVPT2, FIC-MRCI
   Bernardo de Souza      : ESD, SOC TD-DFT
   Georgi Stoychev        : AutoAux, RI-MP2 NMR
   Willem Van den Heuvel  : Paramagnetic NMR
   Boris Wezisla          : Elementary symmetry handling
   Frank Wennmohs         : Technical directorship


 We gratefully acknowledge several colleagues who have allowed us to
 interface, adapt or use parts of their codes:
   Stefan Grimme, W. Hujo, H. Kruse,             : VdW corrections, initial TS optimization,
                  C. Bannwarth                     DFT functionals, gCP, sTDA/sTD-DF
   Ed Valeev, F. Pavosevic, A. Kumar             : LibInt (2-el integral package), F12 methods
   Garnet Chan, S. Sharma, J. Yang, R. Olivares  : DMRG
   Ulf Ekstrom                                   : XCFun DFT Library
   Mihaly Kallay                                 : mrcc  (arbitrary order and MRCC methods)
   Andreas Klamt, Michael Diedenhofen            : otool_cosmo (COSMO solvation model)
   Jiri Pittner, Ondrej Demel                    : Mk-CCSD
   Frank Weinhold                                : gennbo (NPA and NBO analysis)
   Christopher J. Cramer and Donald G. Truhlar   : smd solvation model
   Lars Goerigk                                  : TD-DFT with DH, B97 family of functionals
   V. Asgeirsson, H. Jonsson                     : NEB implementation
   FAccTs GmbH                                   : IRC, NEB, NEB-TS, Multilevel, MM, QM/MM, CI optimization
   S Lehtola, MJT Oliveira, MAL Marques          : LibXC Library


 Your calculation uses the libint2 library for the computation of 2-el integrals
 For citations please refer to: http://libint.valeyev.net

 Your ORCA version has been built with support for libXC version: 4.2.3
 For citations please refer to: https://tddft.org/programs/libxc/

 This ORCA versions uses:
   CBLAS   interface :  Fast vector & matrix operations
   LAPACKE interface :  Fast linear algebra routines
   SCALAPACK package :  Parallel linear algebra routines


----- Orbital basis set information -----
Your calculation utilizes the basis: def2-TZVP
   F. Weigend and R. Ahlrichs, Phys. Chem. Chem. Phys. 7, 3297 (2005).

================================================================================
                                        WARNINGS
                       Please study these warnings very carefully!
================================================================================


WARNING: The frozen-core approximation for MP2-gradient calculations is turned on by default.

INFO   : the flag for use of LIBINT has been found!

----- Orbital basis set information -----
Your calculation utilizes the basis: def2-TZVP
   F. Weigend and R. Ahlrichs, Phys. Chem. Chem. Phys. 7, 3297 (2005).

================================================================================
                                        WARNINGS
                       Please study these warnings very carefully!
================================================================================


WARNING: The frozen-core approximation for MP2-gradient calculations is turned on by default.

INFO   : the flag for use of LIBINT has been found!

----- Orbital basis set information -----
Your calculation utilizes the basis: def2-TZVP
   F. Weigend and R. Ahlrichs, Phys. Chem. Chem. Phys. 7, 3297 (2005).

================================================================================
                                        WARNINGS
                       Please study these warnings very carefully!
================================================================================


WARNING: The frozen-core approximation for MP2-gradient calculations is turned on by default.

INFO   : the flag for use of LIBINT has been found!

----- Orbital basis set information -----
Your calculation utilizes the basis: def2-TZVP
   F. Weigend and R. Ahlrichs, Phys. Chem. Chem. Phys. 7, 3297 (2005).

================================================================================
                                        WARNINGS
                       Please study these warnings very carefully!
================================================================================


WARNING: The frozen-core approximation for MP2-gradient calculations is turned on by default.

INFO   : the flag for use of LIBINT has been found!

----- Orbital basis set information -----
Your calculation utilizes the basis: def2-TZVP
   F. Weigend and R. Ahlrichs, Phys. Chem. Chem. Phys. 7, 3297 (2005).

================================================================================
                                        WARNINGS
                       Please study these warnings very carefully!
================================================================================


WARNING: The frozen-core approximation for MP2-gradient calculations is turned on by default.

INFO   : the flag for use of LIBINT has been found!

----- Orbital basis set information -----
Your calculation utilizes the basis: def2-TZVP
   F. Weigend and R. Ahlrichs, Phys. Chem. Chem. Phys. 7, 3297 (2005).

================================================================================
                                        WARNINGS
                       Please study these warnings very carefully!
================================================================================


WARNING: The frozen-core approximation for MP2-gradient calculations is turned on by default.

INFO   : the flag for use of LIBINT has been found!

----- Orbital basis set information -----
Your calculation utilizes the basis: def2-TZVP
   F. Weigend and R. Ahlrichs, Phys. Chem. Chem. Phys. 7, 3297 (2005).

================================================================================
                                        WARNINGS
                       Please study these warnings very carefully!
================================================================================


WARNING: The frozen-core approximation for MP2-gradient calculations is turned on by default.

INFO   : the flag for use of LIBINT has been found!

----- Orbital basis set information -----
Your calculation utilizes the basis: def2-TZVP
   F. Weigend and R. Ahlrichs, Phys. Chem. Chem. Phys. 7, 3297 (2005).

================================================================================
                                        WARNINGS
                       Please study these warnings very carefully!
================================================================================


WARNING: The frozen-core approximation for MP2-gradient calculations is turned on by default.

INFO   : the flag for use of LIBINT has been found!

----- Orbital basis set information -----
Your calculation utilizes the basis: def2-TZVP
   F. Weigend and R. Ahlrichs, Phys. Chem. Chem. Phys. 7, 3297 (2005).

================================================================================
                                        WARNINGS
                       Please study these warnings very carefully!
================================================================================


WARNING: The frozen-core approximation for MP2-gradient calculations is turned on by default.

INFO   : the flag for use of LIBINT has been found!

----- Orbital basis set information -----
Your calculation utilizes the basis: def2-TZVP
   F. Weigend and R. Ahlrichs, Phys. Chem. Chem. Phys. 7, 3297 (2005).

================================================================================
                                        WARNINGS
                       Please study these warnings very carefully!
================================================================================


WARNING: The frozen-core approximation for MP2-gradient calculations is turned on by default.

INFO   : the flag for use of LIBINT has been found!

----- Orbital basis set information -----
Your calculation utilizes the basis: def2-TZVP
   F. Weigend and R. Ahlrichs, Phys. Chem. Chem. Phys. 7, 3297 (2005).

================================================================================
                                        WARNINGS
                       Please study these warnings very carefully!
================================================================================


WARNING: The frozen-core approximation for MP2-gradient calculations is turned on by default.

INFO   : the flag for use of LIBINT has been found!

----- Orbital basis set information -----
Your calculation utilizes the basis: def2-TZVP
   F. Weigend and R. Ahlrichs, Phys. Chem. Chem. Phys. 7, 3297 (2005).

================================================================================
                                        WARNINGS
                       Please study these warnings very carefully!
================================================================================


WARNING: The frozen-core approximation for MP2-gradient calculations is turned on by default.

INFO   : the flag for use of LIBINT has been found!

----- Orbital basis set information -----
Your calculation utilizes the basis: def2-TZVP
   F. Weigend and R. Ahlrichs, Phys. Chem. Chem. Phys. 7, 3297 (2005).

================================================================================
                                        WARNINGS
                       Please study these warnings very carefully!
================================================================================


WARNING: The frozen-core approximation for MP2-gradient calculations is turned on by default.

INFO   : the flag for use of LIBINT has been found!

----- Orbital basis set information -----
Your calculation utilizes the basis: def2-TZVP
   F. Weigend and R. Ahlrichs, Phys. Chem. Chem. Phys. 7, 3297 (2005).

================================================================================
                                        WARNINGS
                       Please study these warnings very carefully!
================================================================================


WARNING: The frozen-core approximation for MP2-gradient calculations is turned on by default.

INFO   : the flag for use of LIBINT has been found!

----- Orbital basis set information -----
Your calculation utilizes the basis: def2-TZVP
   F. Weigend and R. Ahlrichs, Phys. Chem. Chem. Phys. 7, 3297 (2005).

================================================================================
                                        WARNINGS
                       Please study these warnings very carefully!
================================================================================


WARNING: The frozen-core approximation for MP2-gradient calculations is turned on by default.

INFO   : the flag for use of LIBINT has been found!

----- Orbital basis set information -----
Your calculation utilizes the basis: def2-TZVP
   F. Weigend and R. Ahlrichs, Phys. Chem. Chem. Phys. 7, 3297 (2005).

================================================================================
                                        WARNINGS
                       Please study these warnings very carefully!
================================================================================


WARNING: The frozen-core approximation for MP2-gradient calculations is turned on by default.

INFO   : the flag for use of LIBINT has been found!

----- Orbital basis set information -----
Your calculation utilizes the basis: def2-TZVP
   F. Weigend and R. Ahlrichs, Phys. Chem. Chem. Phys. 7, 3297 (2005).

================================================================================
                                        WARNINGS
                       Please study these warnings very carefully!
================================================================================


WARNING: The frozen-core approximation for MP2-gradient calculations is turned on by default.

INFO   : the flag for use of LIBINT has been found!

----- Orbital basis set information -----
Your calculation utilizes the basis: def2-TZVP
   F. Weigend and R. Ahlrichs, Phys. Chem. Chem. Phys. 7, 3297 (2005).

================================================================================
                                        WARNINGS
                       Please study these warnings very carefully!
================================================================================


WARNING: The frozen-core approximation for MP2-gradient calculations is turned on by default.

INFO   : the flag for use of LIBINT has been found!

----- Orbital basis set information -----
Your calculation utilizes the basis: def2-TZVP
   F. Weigend and R. Ahlrichs, Phys. Chem. Chem. Phys. 7, 3297 (2005).

================================================================================
                                        WARNINGS
                       Please study these warnings very carefully!
================================================================================


WARNING: The frozen-core approximation for MP2-gradient calculations is turned on by default.

INFO   : the flag for use of LIBINT has been found!

----- Orbital basis set information -----
Your calculation utilizes the basis: def2-TZVP
   F. Weigend and R. Ahlrichs, Phys. Chem. Chem. Phys. 7, 3297 (2005).

================================================================================
                                        WARNINGS
                       Please study these warnings very carefully!
================================================================================


WARNING: The frozen-core approximation for MP2-gradient calculations is turned on by default.

INFO   : the flag for use of LIBINT has been found!

----- Orbital basis set information -----
Your calculation utilizes the basis: def2-TZVP
   F. Weigend and R. Ahlrichs, Phys. Chem. Chem. Phys. 7, 3297 (2005).

================================================================================
                                        WARNINGS
                       Please study these warnings very carefully!
================================================================================


WARNING: The frozen-core approximation for MP2-gradient calculations is turned on by default.

INFO   : the flag for use of LIBINT has been found!

----- Orbital basis set information -----
Your calculation utilizes the basis: def2-TZVP
   F. Weigend and R. Ahlrichs, Phys. Chem. Chem. Phys. 7, 3297 (2005).

================================================================================
                                        WARNINGS
                       Please study these warnings very carefully!
================================================================================


WARNING: The frozen-core approximation for MP2-gradient calculations is turned on by default.

INFO   : the flag for use of LIBINT has been found!

----- Orbital basis set information -----
Your calculation utilizes the basis: def2-TZVP
   F. Weigend and R. Ahlrichs, Phys. Chem. Chem. Phys. 7, 3297 (2005).

================================================================================
                                        WARNINGS
                       Please study these warnings very carefully!
================================================================================


WARNING: The frozen-core approximation for MP2-gradient calculations is turned on by default.

INFO   : the flag for use of LIBINT has been found!

----- Orbital basis set information -----
Your calculation utilizes the basis: def2-TZVP
   F. Weigend and R. Ahlrichs, Phys. Chem. Chem. Phys. 7, 3297 (2005).

================================================================================
                                        WARNINGS
                       Please study these warnings very carefully!
================================================================================


WARNING: The frozen-core approximation for MP2-gradient calculations is turned on by default.

INFO   : the flag for use of LIBINT has been found!

----- Orbital basis set information -----
Your calculation utilizes the basis: def2-TZVP
   F. Weigend and R. Ahlrichs, Phys. Chem. Chem. Phys. 7, 3297 (2005).

================================================================================
                                        WARNINGS
                       Please study these warnings very carefully!
================================================================================


WARNING: The frozen-core approximation for MP2-gradient calculations is turned on by default.

INFO   : the flag for use of LIBINT has been found!

----- Orbital basis set information -----
Your calculation utilizes the basis: def2-TZVP
   F. Weigend and R. Ahlrichs, Phys. Chem. Chem. Phys. 7, 3297 (2005).

================================================================================
                                        WARNINGS
                       Please study these warnings very carefully!
================================================================================


WARNING: The frozen-core approximation for MP2-gradient calculations is turned on by default.

INFO   : the flag for use of LIBINT has been found!

----- Orbital basis set information -----
Your calculation utilizes the basis: def2-TZVP
   F. Weigend and R. Ahlrichs, Phys. Chem. Chem. Phys. 7, 3297 (2005).

================================================================================
                                        WARNINGS
                       Please study these warnings very carefully!
================================================================================


WARNING: The frozen-core approximation for MP2-gradient calculations is turned on by default.

INFO   : the flag for use of LIBINT has been found!

----- Orbital basis set information -----
Your calculation utilizes the basis: def2-TZVP
   F. Weigend and R. Ahlrichs, Phys. Chem. Chem. Phys. 7, 3297 (2005).

================================================================================
                                        WARNINGS
                       Please study these warnings very carefully!
================================================================================


WARNING: The frozen-core approximation for MP2-gradient calculations is turned on by default.

INFO   : the flag for use of LIBINT has been found!

----- Orbital basis set information -----
Your calculation utilizes the basis: def2-TZVP
   F. Weigend and R. Ahlrichs, Phys. Chem. Chem. Phys. 7, 3297 (2005).

================================================================================
                                        WARNINGS
                       Please study these warnings very carefully!
================================================================================


WARNING: The frozen-core approximation for MP2-gradient calculations is turned on by default.

INFO   : the flag for use of LIBINT has been found!

----- Orbital basis set information -----
Your calculation utilizes the basis: def2-TZVP
   F. Weigend and R. Ahlrichs, Phys. Chem. Chem. Phys. 7, 3297 (2005).

================================================================================
                                        WARNINGS
                       Please study these warnings very carefully!
================================================================================


WARNING: The frozen-core approximation for MP2-gradient calculations is turned on by default.

INFO   : the flag for use of LIBINT has been found!

----- Orbital basis set information -----
Your calculation utilizes the basis: def2-TZVP
   F. Weigend and R. Ahlrichs, Phys. Chem. Chem. Phys. 7, 3297 (2005).

================================================================================
                                        WARNINGS
                       Please study these warnings very carefully!
================================================================================


WARNING: The frozen-core approximation for MP2-gradient calculations is turned on by default.

INFO   : the flag for use of LIBINT has been found!

----- Orbital basis set information -----
Your calculation utilizes the basis: def2-TZVP
   F. Weigend and R. Ahlrichs, Phys. Chem. Chem. Phys. 7, 3297 (2005).

================================================================================
                                        WARNINGS
                       Please study these warnings very carefully!
================================================================================


WARNING: The frozen-core approximation for MP2-gradient calculations is turned on by default.

INFO   : the flag for use of LIBINT has been found!

----- Orbital basis set information -----
Your calculation utilizes the basis: def2-TZVP
   F. Weigend and R. Ahlrichs, Phys. Chem. Chem. Phys. 7, 3297 (2005).

================================================================================
                                        WARNINGS
                       Please study these warnings very carefully!
================================================================================


WARNING: The frozen-core approximation for MP2-gradient calculations is turned on by default.

INFO   : the flag for use of LIBINT has been found!

----- Orbital basis set information -----
Your calculation utilizes the basis: def2-TZVP
   F. Weigend and R. Ahlrichs, Phys. Chem. Chem. Phys. 7, 3297 (2005).

================================================================================
                                        WARNINGS
                       Please study these warnings very carefully!
================================================================================


WARNING: The frozen-core approximation for MP2-gradient calculations is turned on by default.

INFO   : the flag for use of LIBINT has been found!

----- Orbital basis set information -----
Your calculation utilizes the basis: def2-TZVP
   F. Weigend and R. Ahlrichs, Phys. Chem. Chem. Phys. 7, 3297 (2005).

================================================================================
                                        WARNINGS
                       Please study these warnings very carefully!
================================================================================


WARNING: The frozen-core approximation for MP2-gradient calculations is turned on by default.

INFO   : the flag for use of LIBINT has been found!

----- Orbital basis set information -----
Your calculation utilizes the basis: def2-TZVP
   F. Weigend and R. Ahlrichs, Phys. Chem. Chem. Phys. 7, 3297 (2005).

================================================================================
                                        WARNINGS
                       Please study these warnings very carefully!
================================================================================


WARNING: The frozen-core approximation for MP2-gradient calculations is turned on by default.

INFO   : the flag for use of LIBINT has been found!

----- Orbital basis set information -----
Your calculation utilizes the basis: def2-TZVP
   F. Weigend and R. Ahlrichs, Phys. Chem. Chem. Phys. 7, 3297 (2005).

================================================================================
                                        WARNINGS
                       Please study these warnings very carefully!
================================================================================


WARNING: The frozen-core approximation for MP2-gradient calculations is turned on by default.

INFO   : the flag for use of LIBINT has been found!

----- Orbital basis set information -----
Your calculation utilizes the basis: def2-TZVP
   F. Weigend and R. Ahlrichs, Phys. Chem. Chem. Phys. 7, 3297 (2005).

================================================================================
                                        WARNINGS
                       Please study these warnings very carefully!
================================================================================


WARNING: The frozen-core approximation for MP2-gradient calculations is turned on by default.

INFO   : the flag for use of LIBINT has been found!

----- Orbital basis set information -----
Your calculation utilizes the basis: def2-TZVP
   F. Weigend and R. Ahlrichs, Phys. Chem. Chem. Phys. 7, 3297 (2005).

================================================================================
                                        WARNINGS
                       Please study these warnings very carefully!
================================================================================


WARNING: The frozen-core approximation for MP2-gradient calculations is turned on by default.

INFO   : the flag for use of LIBINT has been found!

----- Orbital basis set information -----
Your calculation utilizes the basis: def2-TZVP
   F. Weigend and R. Ahlrichs, Phys. Chem. Chem. Phys. 7, 3297 (2005).

================================================================================
                                        WARNINGS
                       Please study these warnings very carefully!
================================================================================


WARNING: The frozen-core approximation for MP2-gradient calculations is turned on by default.

INFO   : the flag for use of LIBINT has been found!

----- Orbital basis set information -----
Your calculation utilizes the basis: def2-TZVP
   F. Weigend and R. Ahlrichs, Phys. Chem. Chem. Phys. 7, 3297 (2005).

================================================================================
                                        WARNINGS
                       Please study these warnings very carefully!
================================================================================


WARNING: The frozen-core approximation for MP2-gradient calculations is turned on by default.

INFO   : the flag for use of LIBINT has been found!

----- Orbital basis set information -----
Your calculation utilizes the basis: def2-TZVP
   F. Weigend and R. Ahlrichs, Phys. Chem. Chem. Phys. 7, 3297 (2005).

================================================================================
                                        WARNINGS
                       Please study these warnings very carefully!
================================================================================


WARNING: The frozen-core approximation for MP2-gradient calculations is turned on by default.

INFO   : the flag for use of LIBINT has been found!

----- Orbital basis set information -----
Your calculation utilizes the basis: def2-TZVP
   F. Weigend and R. Ahlrichs, Phys. Chem. Chem. Phys. 7, 3297 (2005).

================================================================================
                                        WARNINGS
                       Please study these warnings very carefully!
================================================================================


WARNING: The frozen-core approximation for MP2-gradient calculations is turned on by default.

INFO   : the flag for use of LIBINT has been found!

----- Orbital basis set information -----
Your calculation utilizes the basis: def2-TZVP
   F. Weigend and R. Ahlrichs, Phys. Chem. Chem. Phys. 7, 3297 (2005).

================================================================================
                                        WARNINGS
                       Please study these warnings very carefully!
================================================================================


WARNING: The frozen-core approximation for MP2-gradient calculations is turned on by default.

INFO   : the flag for use of LIBINT has been found!

----- Orbital basis set information -----
Your calculation utilizes the basis: def2-TZVP
   F. Weigend and R. Ahlrichs, Phys. Chem. Chem. Phys. 7, 3297 (2005).

================================================================================
                                        WARNINGS
                       Please study these warnings very carefully!
================================================================================


WARNING: The frozen-core approximation for MP2-gradient calculations is turned on by default.

INFO   : the flag for use of LIBINT has been found!

----- Orbital basis set information -----
Your calculation utilizes the basis: def2-TZVP
   F. Weigend and R. Ahlrichs, Phys. Chem. Chem. Phys. 7, 3297 (2005).

================================================================================
                                        WARNINGS
                       Please study these warnings very carefully!
================================================================================


WARNING: The frozen-core approximation for MP2-gradient calculations is turned on by default.

INFO   : the flag for use of LIBINT has been found!

----- Orbital basis set information -----
Your calculation utilizes the basis: def2-TZVP
   F. Weigend and R. Ahlrichs, Phys. Chem. Chem. Phys. 7, 3297 (2005).

================================================================================
                                        WARNINGS
                       Please study these warnings very carefully!
================================================================================


WARNING: The frozen-core approximation for MP2-gradient calculations is turned on by default.

INFO   : the flag for use of LIBINT has been found!

----- Orbital basis set information -----
Your calculation utilizes the basis: def2-TZVP
   F. Weigend and R. Ahlrichs, Phys. Chem. Chem. Phys. 7, 3297 (2005).

================================================================================
                                        WARNINGS
                       Please study these warnings very carefully!
================================================================================


WARNING: The frozen-core approximation for MP2-gradient calculations is turned on by default.

INFO   : the flag for use of LIBINT has been found!

----- Orbital basis set information -----
Your calculation utilizes the basis: def2-TZVP
   F. Weigend and R. Ahlrichs, Phys. Chem. Chem. Phys. 7, 3297 (2005).

================================================================================
                                        WARNINGS
                       Please study these warnings very carefully!
================================================================================


WARNING: The frozen-core approximation for MP2-gradient calculations is turned on by default.

INFO   : the flag for use of LIBINT has been found!

----- Orbital basis set information -----
Your calculation utilizes the basis: def2-TZVP
   F. Weigend and R. Ahlrichs, Phys. Chem. Chem. Phys. 7, 3297 (2005).

================================================================================
                                        WARNINGS
                       Please study these warnings very carefully!
================================================================================


WARNING: The frozen-core approximation for MP2-gradient calculations is turned on by default.

INFO   : the flag for use of LIBINT has been found!

----- Orbital basis set information -----
Your calculation utilizes the basis: def2-TZVP
   F. Weigend and R. Ahlrichs, Phys. Chem. Chem. Phys. 7, 3297 (2005).

================================================================================
                                        WARNINGS
                       Please study these warnings very carefully!
================================================================================


WARNING: The frozen-core approximation for MP2-gradient calculations is turned on by default.

INFO   : the flag for use of LIBINT has been found!

----- Orbital basis set information -----
Your calculation utilizes the basis: def2-TZVP
   F. Weigend and R. Ahlrichs, Phys. Chem. Chem. Phys. 7, 3297 (2005).

================================================================================
                                        WARNINGS
                       Please study these warnings very carefully!
================================================================================


WARNING: The frozen-core approximation for MP2-gradient calculations is turned on by default.

INFO   : the flag for use of LIBINT has been found!

----- Orbital basis set information -----
Your calculation utilizes the basis: def2-TZVP
   F. Weigend and R. Ahlrichs, Phys. Chem. Chem. Phys. 7, 3297 (2005).

================================================================================
                                        WARNINGS
                       Please study these warnings very carefully!
================================================================================


WARNING: The frozen-core approximation for MP2-gradient calculations is turned on by default.

INFO   : the flag for use of LIBINT has been found!

----- Orbital basis set information -----
Your calculation utilizes the basis: def2-TZVP
   F. Weigend and R. Ahlrichs, Phys. Chem. Chem. Phys. 7, 3297 (2005).

================================================================================
                                        WARNINGS
                       Please study these warnings very carefully!
================================================================================


WARNING: The frozen-core approximation for MP2-gradient calculations is turned on by default.

INFO   : the flag for use of LIBINT has been found!

----- Orbital basis set information -----
Your calculation utilizes the basis: def2-TZVP
   F. Weigend and R. Ahlrichs, Phys. Chem. Chem. Phys. 7, 3297 (2005).

================================================================================
                                        WARNINGS
                       Please study these warnings very carefully!
================================================================================


WARNING: The frozen-core approximation for MP2-gradient calculations is turned on by default.

INFO   : the flag for use of LIBINT has been found!

----- Orbital basis set information -----
Your calculation utilizes the basis: def2-TZVP
   F. Weigend and R. Ahlrichs, Phys. Chem. Chem. Phys. 7, 3297 (2005).

================================================================================
                                        WARNINGS
                       Please study these warnings very carefully!
================================================================================


WARNING: The frozen-core approximation for MP2-gradient calculations is turned on by default.

INFO   : the flag for use of LIBINT has been found!

----- Orbital basis set information -----
Your calculation utilizes the basis: def2-TZVP
   F. Weigend and R. Ahlrichs, Phys. Chem. Chem. Phys. 7, 3297 (2005).

================================================================================
                                        WARNINGS
                       Please study these warnings very carefully!
================================================================================


WARNING: The frozen-core approximation for MP2-gradient calculations is turned on by default.

INFO   : the flag for use of LIBINT has been found!

----- Orbital basis set information -----
Your calculation utilizes the basis: def2-TZVP
   F. Weigend and R. Ahlrichs, Phys. Chem. Chem. Phys. 7, 3297 (2005).

================================================================================
                                        WARNINGS
                       Please study these warnings very carefully!
================================================================================


WARNING: The frozen-core approximation for MP2-gradient calculations is turned on by default.

INFO   : the flag for use of LIBINT has been found!

----- Orbital basis set information -----
Your calculation utilizes the basis: def2-TZVP
   F. Weigend and R. Ahlrichs, Phys. Chem. Chem. Phys. 7, 3297 (2005).

================================================================================
                                        WARNINGS
                       Please study these warnings very carefully!
================================================================================


WARNING: The frozen-core approximation for MP2-gradient calculations is turned on by default.

INFO   : the flag for use of LIBINT has been found!

----- Orbital basis set information -----
Your calculation utilizes the basis: def2-TZVP
   F. Weigend and R. Ahlrichs, Phys. Chem. Chem. Phys. 7, 3297 (2005).

================================================================================
                                        WARNINGS
                       Please study these warnings very carefully!
================================================================================


WARNING: The frozen-core approximation for MP2-gradient calculations is turned on by default.

INFO   : the flag for use of LIBINT has been found!

----- Orbital basis set information -----
Your calculation utilizes the basis: def2-TZVP
   F. Weigend and R. Ahlrichs, Phys. Chem. Chem. Phys. 7, 3297 (2005).

================================================================================
                                        WARNINGS
                       Please study these warnings very carefully!
================================================================================


WARNING: The frozen-core approximation for MP2-gradient calculations is turned on by default.

INFO   : the flag for use of LIBINT has been found!

----- Orbital basis set information -----
Your calculation utilizes the basis: def2-TZVP
   F. Weigend and R. Ahlrichs, Phys. Chem. Chem. Phys. 7, 3297 (2005).

================================================================================
                                        WARNINGS
                       Please study these warnings very carefully!
================================================================================


WARNING: The frozen-core approximation for MP2-gradient calculations is turned on by default.

INFO   : the flag for use of LIBINT has been found!

----- Orbital basis set information -----
Your calculation utilizes the basis: def2-TZVP
   F. Weigend and R. Ahlrichs, Phys. Chem. Chem. Phys. 7, 3297 (2005).

================================================================================
                                        WARNINGS
                       Please study these warnings very carefully!
================================================================================


WARNING: The frozen-core approximation for MP2-gradient calculations is turned on by default.

INFO   : the flag for use of LIBINT has been found!

----- Orbital basis set information -----
Your calculation utilizes the basis: def2-TZVP
   F. Weigend and R. Ahlrichs, Phys. Chem. Chem. Phys. 7, 3297 (2005).

================================================================================
                                        WARNINGS
                       Please study these warnings very carefully!
================================================================================


WARNING: The frozen-core approximation for MP2-gradient calculations is turned on by default.

INFO   : the flag for use of LIBINT has been found!

----- Orbital basis set information -----
Your calculation utilizes the basis: def2-TZVP
   F. Weigend and R. Ahlrichs, Phys. Chem. Chem. Phys. 7, 3297 (2005).

================================================================================
                                        WARNINGS
                       Please study these warnings very carefully!
================================================================================


WARNING: The frozen-core approximation for MP2-gradient calculations is turned on by default.

INFO   : the flag for use of LIBINT has been found!

----- Orbital basis set information -----
Your calculation utilizes the basis: def2-TZVP
   F. Weigend and R. Ahlrichs, Phys. Chem. Chem. Phys. 7, 3297 (2005).

================================================================================
                                        WARNINGS
                       Please study these warnings very carefully!
================================================================================


WARNING: The frozen-core approximation for MP2-gradient calculations is turned on by default.

INFO   : the flag for use of LIBINT has been found!

----- Orbital basis set information -----
Your calculation utilizes the basis: def2-TZVP
   F. Weigend and R. Ahlrichs, Phys. Chem. Chem. Phys. 7, 3297 (2005).

================================================================================
                                        WARNINGS
                       Please study these warnings very carefully!
================================================================================


WARNING: The frozen-core approximation for MP2-gradient calculations is turned on by default.

INFO   : the flag for use of LIBINT has been found!

----- Orbital basis set information -----
Your calculation utilizes the basis: def2-TZVP
   F. Weigend and R. Ahlrichs, Phys. Chem. Chem. Phys. 7, 3297 (2005).

================================================================================
                                        WARNINGS
                       Please study these warnings very carefully!
================================================================================


WARNING: The frozen-core approximation for MP2-gradient calculations is turned on by default.

INFO   : the flag for use of LIBINT has been found!

----- Orbital basis set information -----
Your calculation utilizes the basis: def2-TZVP
   F. Weigend and R. Ahlrichs, Phys. Chem. Chem. Phys. 7, 3297 (2005).

================================================================================
                                        WARNINGS
                       Please study these warnings very carefully!
================================================================================


WARNING: The frozen-core approximation for MP2-gradient calculations is turned on by default.

INFO   : the flag for use of LIBINT has been found!

----- Orbital basis set information -----
Your calculation utilizes the basis: def2-TZVP
   F. Weigend and R. Ahlrichs, Phys. Chem. Chem. Phys. 7, 3297 (2005).

================================================================================
                                        WARNINGS
                       Please study these warnings very carefully!
================================================================================


WARNING: The frozen-core approximation for MP2-gradient calculations is turned on by default.

INFO   : the flag for use of LIBINT has been found!

================================================================================
                                       INPUT FILE
================================================================================
NAME = 5meoh.boyd.etal.dset.1meoh.dset-orca.engrad-mp2.def2tzvp.inp
|  1> # 5meoh.boyd.etal.dset.1meoh.dset-orca.engrad-mp2.def2tzvp
|  2> ! MP2 def2-TZVP EnGrad TightSCF FrozenCore
|  3> 
|  4> %pal
|  5>     nprocs 12
|  6> end
|  7> 
|  8> %maxcore 8000
|  9> 
| 10> %scf
| 11>     ConvForced true
| 12> end
| 13> 
| 14> *xyz 0 1
| 15> O  -0.053551369  -0.034818903   0.691416475
| 16> H   0.883505837  -0.036069414   1.026988134
| 17> C  -0.001642369   0.034971201  -0.727597027
| 18> H  -1.029353241   0.001971445  -1.101033524
| 19> H   0.556460298  -0.803668219  -1.167787250
| 20> H   0.459062996   0.973778387  -1.063933826
| 21> *
| 22> 
| 23> 
| 24> $new_job
| 25> 
| 26> # 5meoh.boyd.etal.dset.1meoh.dset-orca.engrad-mp2.def2tzvp
| 27> ! MP2 def2-TZVP EnGrad TightSCF FrozenCore
| 28> 
| 29> %pal
| 30>     nprocs 12
| 31> end
| 32> 
| 33> %maxcore 8000
| 34> 
| 35> %scf
| 36>     ConvForced true
| 37> end
| 38> 
| 39> *xyz 0 1
| 40> O   0.618933684  -0.227780001  -0.213258517
| 41> H   1.091536593   0.570287323  -0.574238963
| 42> C  -0.660855195   0.184981035   0.240638201
| 43> H  -1.173335701  -0.694673847   0.641662698
| 44> H  -1.267053462   0.589513859  -0.581938993
| 45> H  -0.601588000   0.946516207   1.032415800
| 46> *
| 47> 
| 48> 
| 49> $new_job
| 50> 
| 51> # 5meoh.boyd.etal.dset.1meoh.dset-orca.engrad-mp2.def2tzvp
| 52> ! MP2 def2-TZVP EnGrad TightSCF FrozenCore
| 53> 
| 54> %pal
| 55>     nprocs 12
| 56> end
| 57> 
| 58> %maxcore 8000
| 59> 
| 60> %scf
| 61>     ConvForced true
| 62> end
| 63> 
| 64> *xyz 0 1
| 65> O  -0.351907203   0.513050000   0.307414585
| 66> H  -1.252167355   0.139614074   0.507236162
| 67> C   0.414042084  -0.502188725  -0.327181724
| 68> H   1.394155110  -0.079358151  -0.566246936
| 69> H  -0.049998149  -0.855718648  -1.259233901
| 70> H   0.560588269  -1.364817317   0.336924686
| 71> *
| 72> 
| 73> 
| 74> $new_job
| 75> 
| 76> # 5meoh.boyd.etal.dset.1meoh.dset-orca.engrad-mp2.def2tzvp
| 77> ! MP2 def2-TZVP EnGrad TightSCF FrozenCore
| 78> 
| 79> %pal
| 80>     nprocs 12
| 81> end
| 82> 
| 83> %maxcore 8000
| 84> 
| 85> %scf
| 86>     ConvForced true
| 87> end
| 88> 
| 89> *xyz 0 1
| 90> O  -0.242396049  -0.476034702  -0.442652881
| 91> H  -0.093868369  -1.354746623   0.000625759
| 92> C   0.238410575   0.539909165   0.426380935
| 93> H   0.040321335   1.505537354  -0.047895250
| 94> H   1.321301741   0.448277074   0.587259304
| 95> H  -0.260763500   0.524126734   1.406105039
| 96> *
| 97> 
| 98> 
| 99> $new_job
|100> 
|101> # 5meoh.boyd.etal.dset.1meoh.dset-orca.engrad-mp2.def2tzvp
|102> ! MP2 def2-TZVP EnGrad TightSCF FrozenCore
|103> 
|104> %pal
|105>     nprocs 12
|106> end
|107> 
|108> %maxcore 8000
|109> 
|110> %scf
|111>     ConvForced true
|112> end
|113> 
|114> *xyz 0 1
|115> O   0.244765462  -0.095102033  -0.641628568
|116> H  -0.418375873   0.323066168  -1.252945896
|117> C  -0.210358118   0.072623782   0.692893721
|118> H   0.561639021  -0.321399639   1.360037840
|119> H  -1.139570585  -0.486077394   0.873163565
|120> H  -0.382575239   1.128717212   0.948679917
|121> *
|122> 
|123> 
|124> $new_job
|125> 
|126> # 5meoh.boyd.etal.dset.1meoh.dset-orca.engrad-mp2.def2tzvp
|127> ! MP2 def2-TZVP EnGrad TightSCF FrozenCore
|128> 
|129> %pal
|130>     nprocs 12
|131> end
|132> 
|133> %maxcore 8000
|134> 
|135> %scf
|136>     ConvForced true
|137> end
|138> 
|139> *xyz 0 1
|140> O  -0.182256837  -0.521043080   0.420417755
|141> H   0.676293452  -0.911357164   0.736126332
|142> C   0.134736320   0.556581349  -0.448209345
|143> H  -0.804972074   1.019985878  -0.763167612
|144> H   0.661744839   0.207181799  -1.347089239
|145> H   0.754641448   1.323204125   0.041119986
|146> *
|147> 
|148> 
|149> $new_job
|150> 
|151> # 5meoh.boyd.etal.dset.1meoh.dset-orca.engrad-mp2.def2tzvp
|152> ! MP2 def2-TZVP EnGrad TightSCF FrozenCore
|153> 
|154> %pal
|155>     nprocs 12
|156> end
|157> 
|158> %maxcore 8000
|159> 
|160> %scf
|161>     ConvForced true
|162> end
|163> 
|164> *xyz 0 1
|165> O   0.674865870  -0.110961460   0.103165878
|166> H   1.036382063  -0.510307383  -0.731861054
|167> C  -0.711552657   0.138140261  -0.055631019
|168> H  -1.088375298   0.540435414   0.889377799
|169> H  -1.262364609  -0.785258739  -0.281504253
|170> H  -0.919862380   0.870492716  -0.850817705
|171> *
|172> 
|173> 
|174> $new_job
|175> 
|176> # 5meoh.boyd.etal.dset.1meoh.dset-orca.engrad-mp2.def2tzvp
|177> ! MP2 def2-TZVP EnGrad TightSCF FrozenCore
|178> 
|179> %pal
|180>     nprocs 12
|181> end
|182> 
|183> %maxcore 8000
|184> 
|185> %scf
|186>     ConvForced true
|187> end
|188> 
|189> *xyz 0 1
|190> O  -0.127378442   0.275127821  -0.624963786
|191> H  -0.907045982   0.877259947  -0.491612542
|192> C   0.176804859  -0.318429185   0.631368322
|193> H   1.035145378  -0.981049938   0.487060590
|194> H  -0.659838382  -0.911972529   1.026464535
|195> H   0.446979379   0.442684328   1.375624100
|196> *
|197> 
|198> 
|199> $new_job
|200> 
|201> # 5meoh.boyd.etal.dset.1meoh.dset-orca.engrad-mp2.def2tzvp
|202> ! MP2 def2-TZVP EnGrad TightSCF FrozenCore
|203> 
|204> %pal
|205>     nprocs 12
|206> end
|207> 
|208> %maxcore 8000
|209> 
|210> %scf
|211>     ConvForced true
|212> end
|213> 
|214> *xyz 0 1
|215> O  -0.570429202   0.042838114   0.391128066
|216> H  -0.351230495   0.673810694   1.128513340
|217> C   0.569761351  -0.081080497  -0.444797479
|218> H   0.313941212  -0.766032865  -1.258647523
|219> H   1.424801603  -0.502270103   0.102268100
|220> H   0.878430694   0.880625064  -0.880839524
|221> *
|222> 
|223> 
|224> $new_job
|225> 
|226> # 5meoh.boyd.etal.dset.1meoh.dset-orca.engrad-mp2.def2tzvp
|227> ! MP2 def2-TZVP EnGrad TightSCF FrozenCore
|228> 
|229> %pal
|230>     nprocs 12
|231> end
|232> 
|233> %maxcore 8000
|234> 
|235> %scf
|236>     ConvForced true
|237> end
|238> 
|239> *xyz 0 1
|240> O   0.050290517  -0.614283952   0.317190342
|241> H  -0.718285574  -1.151470957  -0.008981739
|242> C  -0.004971993   0.660191001  -0.305152208
|243> H   0.878019721   1.223453090   0.009842364
|244> H  -0.899236893   1.219721149   0.003674522
|245> H   0.000409384   0.592839439  -1.403548723
|246> *
|247> 
|248> 
|249> $new_job
|250> 
|251> # 5meoh.boyd.etal.dset.1meoh.dset-orca.engrad-mp2.def2tzvp
|252> ! MP2 def2-TZVP EnGrad TightSCF FrozenCore
|253> 
|254> %pal
|255>     nprocs 12
|256> end
|257> 
|258> %maxcore 8000
|259> 
|260> %scf
|261>     ConvForced true
|262> end
|263> 
|264> *xyz 0 1
|265> O  -0.030194368   0.006866852   0.695205055
|266> H   0.917891509  -0.001800451   0.995761945
|267> C  -0.026285655  -0.005849870  -0.730347961
|268> H  -1.047509493   0.196192341  -1.067562634
|269> H   0.274912400  -0.989590447  -1.115793273
|270> H   0.647252816   0.755898289  -1.145533965
|271> *
|272> 
|273> 
|274> $new_job
|275> 
|276> # 5meoh.boyd.etal.dset.1meoh.dset-orca.engrad-mp2.def2tzvp
|277> ! MP2 def2-TZVP EnGrad TightSCF FrozenCore
|278> 
|279> %pal
|280>     nprocs 12
|281> end
|282> 
|283> %maxcore 8000
|284> 
|285> %scf
|286>     ConvForced true
|287> end
|288> 
|289> *xyz 0 1
|290> O   0.620817719   0.033471351  -0.303918336
|291> H   0.796994672  -0.857076223  -0.714327966
|292> C  -0.645908084   0.019609009   0.335018358
|293> H  -0.787267211   0.991275288   0.817194265
|294> H  -0.698439981  -0.760727458   1.106262302
|295> H  -1.469748731  -0.138479450  -0.376692808
|296> *
|297> 
|298> 
|299> $new_job
|300> 
|301> # 5meoh.boyd.etal.dset.1meoh.dset-orca.engrad-mp2.def2tzvp
|302> ! MP2 def2-TZVP EnGrad TightSCF FrozenCore
|303> 
|304> %pal
|305>     nprocs 12
|306> end
|307> 
|308> %maxcore 8000
|309> 
|310> %scf
|311>     ConvForced true
|312> end
|313> 
|314> *xyz 0 1
|315> O  -0.559564786  -0.364525736   0.185243543
|316> H  -1.263213729   0.296570146   0.421495407
|317> C   0.614928717   0.333191942  -0.203157298
|318> H   1.382864710  -0.411188521  -0.431866221
|319> H   0.991504161   0.990479254   0.593818706
|320> H   0.444097562   0.940455444  -1.103251751
|321> *
|322> 
|323> 
|324> $new_job
|325> 
|326> # 5meoh.boyd.etal.dset.1meoh.dset-orca.engrad-mp2.def2tzvp
|327> ! MP2 def2-TZVP EnGrad TightSCF FrozenCore
|328> 
|329> %pal
|330>     nprocs 12
|331> end
|332> 
|333> %maxcore 8000
|334> 
|335> %scf
|336>     ConvForced true
|337> end
|338> 
|339> *xyz 0 1
|340> O  -0.001150676  -0.310100679  -0.623049867
|341> H   0.121526570   0.421854470  -1.279380283
|342> C  -0.007190358   0.274126003   0.677627669
|343> H  -0.084501142  -0.541171594   1.402629676
|344> H  -0.858357440   0.954229848   0.819277286
|345> H   0.925280083   0.821269239   0.873392775
|346> *
|347> 
|348> 
|349> $new_job
|350> 
|351> # 5meoh.boyd.etal.dset.1meoh.dset-orca.engrad-mp2.def2tzvp
|352> ! MP2 def2-TZVP EnGrad TightSCF FrozenCore
|353> 
|354> %pal
|355>     nprocs 12
|356> end
|357> 
|358> %maxcore 8000
|359> 
|360> %scf
|361>     ConvForced true
|362> end
|363> 
|364> *xyz 0 1
|365> O   0.435624386  -0.132646772   0.524123886
|366> H  -0.080100542  -0.695896116   1.156680308
|367> C  -0.414452770   0.168873721  -0.574472048
|368> H   0.166700366   0.751420692  -1.294982295
|369> H  -1.276206867   0.773354573  -0.259318611
|370> H  -0.787051582  -0.735497416  -1.077111769
|371> *
|372> 
|373> 
|374> $new_job
|375> 
|376> # 5meoh.boyd.etal.dset.1meoh.dset-orca.engrad-mp2.def2tzvp
|377> ! MP2 def2-TZVP EnGrad TightSCF FrozenCore
|378> 
|379> %pal
|380>     nprocs 12
|381> end
|382> 
|383> %maxcore 8000
|384> 
|385> %scf
|386>     ConvForced true
|387> end
|388> 
|389> *xyz 0 1
|390> O  -0.068066977  -0.047645973   0.689637497
|391> H   0.861418037  -0.065571019   1.074446087
|392> C   0.013321772   0.049874096  -0.729952378
|393> H  -1.006716276   0.059262694  -1.123206073
|394> H   0.548761367  -0.805864905  -1.161206574
|395> H   0.518326498   0.974224167  -1.039492613
|396> *
|397> 
|398> 
|399> $new_job
|400> 
|401> # 5meoh.boyd.etal.dset.1meoh.dset-orca.engrad-mp2.def2tzvp
|402> ! MP2 def2-TZVP EnGrad TightSCF FrozenCore
|403> 
|404> %pal
|405>     nprocs 12
|406> end
|407> 
|408> %maxcore 8000
|409> 
|410> %scf
|411>     ConvForced true
|412> end
|413> 
|414> *xyz 0 1
|415> O   0.542118538  -0.266199552  -0.349198180
|416> H   0.761897920   0.398950231  -1.041482585
|417> C  -0.569224606   0.233602183   0.400265710
|418> H  -0.637719567  -0.358020520   1.317332033
|419> H  -1.506244308   0.110004432  -0.160888829
|420> H  -0.440853281   1.291225173   0.658774388
|421> *
|422> 
|423> 
|424> $new_job
|425> 
|426> # 5meoh.boyd.etal.dset.1meoh.dset-orca.engrad-mp2.def2tzvp
|427> ! MP2 def2-TZVP EnGrad TightSCF FrozenCore
|428> 
|429> %pal
|430>     nprocs 12
|431> end
|432> 
|433> %maxcore 8000
|434> 
|435> %scf
|436>     ConvForced true
|437> end
|438> 
|439> *xyz 0 1
|440> O  -0.245366850   0.641608241   0.099088621
|441> H  -1.183041009   0.627029228  -0.228489441
|442> C   0.307651695  -0.655443172  -0.082331746
|443> H   1.354092769  -0.616800533   0.233272662
|444> H   0.270781219  -0.984223404  -1.131068003
|445> H  -0.212771024  -1.400885410   0.534374874
|446> *
|447> 
|448> 
|449> $new_job
|450> 
|451> # 5meoh.boyd.etal.dset.1meoh.dset-orca.engrad-mp2.def2tzvp
|452> ! MP2 def2-TZVP EnGrad TightSCF FrozenCore
|453> 
|454> %pal
|455>     nprocs 12
|456> end
|457> 
|458> %maxcore 8000
|459> 
|460> %scf
|461>     ConvForced true
|462> end
|463> 
|464> *xyz 0 1
|465> O  -0.073114293  -0.546741154  -0.427725681
|466> H  -0.273963123  -1.322239633   0.163142396
|467> C   0.085312987   0.608037834   0.403308142
|468> H   0.514172584   1.401132975  -0.216664993
|469> H   0.777679054   0.400923273   1.228400331
|470> H  -0.873834979   0.953979373   0.809193680
|471> *
|472> 
|473> 
|474> $new_job
|475> 
|476> # 5meoh.boyd.etal.dset.1meoh.dset-orca.engrad-mp2.def2tzvp
|477> ! MP2 def2-TZVP EnGrad TightSCF FrozenCore
|478> 
|479> %pal
|480>     nprocs 12
|481> end
|482> 
|483> %maxcore 8000
|484> 
|485> %scf
|486>     ConvForced true
|487> end
|488> 
|489> *xyz 0 1
|490> O   0.320823999  -0.577045214   0.206013917
|491> H   0.565299497  -1.060777818  -0.609559098
|492> C  -0.341935168   0.617571830  -0.162216574
|493> H  -0.604685460   1.144307100   0.760266708
|494> H  -1.272041647   0.431288806  -0.722878572
|495> H   0.293043559   1.286433146  -0.765210646
|496> *
|497> 
|498> 
|499> $new_job
|500> 
|501> # 5meoh.boyd.etal.dset.1meoh.dset-orca.engrad-mp2.def2tzvp
|502> ! MP2 def2-TZVP EnGrad TightSCF FrozenCore
|503> 
|504> %pal
|505>     nprocs 12
|506> end
|507> 
|508> %maxcore 8000
|509> 
|510> %scf
|511>     ConvForced true
|512> end
|513> 
|514> *xyz 0 1
|515> O   0.013674340  -0.126421456   0.682891057
|516> H   0.974983095  -0.191623874   0.930198663
|517> C  -0.071746286   0.134322174  -0.713870683
|518> H  -1.129614685   0.252592780  -0.965107365
|519> H   0.329253516  -0.704635043  -1.298280508
|520> H   0.463245212   1.049945986  -1.000805424
|521> *
|522> 
|523> 
|524> $new_job
|525> 
|526> # 5meoh.boyd.etal.dset.1meoh.dset-orca.engrad-mp2.def2tzvp
|527> ! MP2 def2-TZVP EnGrad TightSCF FrozenCore
|528> 
|529> %pal
|530>     nprocs 12
|531> end
|532> 
|533> %maxcore 8000
|534> 
|535> %scf
|536>     ConvForced true
|537> end
|538> 
|539> *xyz 0 1
|540> O   0.664137228   0.043719199  -0.200253111
|541> H   0.796061174  -0.642469769  -0.915446928
|542> C  -0.688771582  -0.003405773   0.248653766
|543> H  -0.794570554   0.723459618   1.057822641
|544> H  -0.950551113  -0.999044809   0.629164779
|545> H  -1.386310432   0.264615130  -0.555610128
|546> *
|547> 
|548> 
|549> $new_job
|550> 
|551> # 5meoh.boyd.etal.dset.1meoh.dset-orca.engrad-mp2.def2tzvp
|552> ! MP2 def2-TZVP EnGrad TightSCF FrozenCore
|553> 
|554> %pal
|555>     nprocs 12
|556> end
|557> 
|558> %maxcore 8000
|559> 
|560> %scf
|561>     ConvForced true
|562> end
|563> 
|564> *xyz 0 1
|565> O  -0.264855823  -0.605991627  -0.223649004
|566> H  -1.176915232  -0.396009665  -0.530814535
|567> C   0.327019864   0.609961741   0.247496103
|568> H   1.402235083   0.434298722   0.343392087
|569> H  -0.067616913   0.876186643   1.237865566
|570> H   0.149943609   1.436970659  -0.449318005
|571> *
|572> 
|573> 
|574> $new_job
|575> 
|576> # 5meoh.boyd.etal.dset.1meoh.dset-orca.engrad-mp2.def2tzvp
|577> ! MP2 def2-TZVP EnGrad TightSCF FrozenCore
|578> 
|579> %pal
|580>     nprocs 12
|581> end
|582> 
|583> %maxcore 8000
|584> 
|585> %scf
|586>     ConvForced true
|587> end
|588> 
|589> *xyz 0 1
|590> O  -0.433231153   0.526212772  -0.130641499
|591> H  -0.625918440   0.953427675   0.747369629
|592> C   0.454506783  -0.564756122   0.080986791
|593> H   0.621257283  -1.050019611  -0.884922990
|594> H   0.042078442  -1.306024105   0.779845582
|595> H   1.423959078  -0.221053200   0.466532896
|596> *
|597> 
|598> 
|599> $new_job
|600> 
|601> # 5meoh.boyd.etal.dset.1meoh.dset-orca.engrad-mp2.def2tzvp
|602> ! MP2 def2-TZVP EnGrad TightSCF FrozenCore
|603> 
|604> %pal
|605>     nprocs 12
|606> end
|607> 
|608> %maxcore 8000
|609> 
|610> %scf
|611>     ConvForced true
|612> end
|613> 
|614> *xyz 0 1
|615> O  -0.331497763   0.231797905   0.562476780
|616> H  -0.969488357  -0.473446777   0.792346707
|617> C   0.376230471  -0.195430507  -0.587538407
|618> H   1.140146051   0.558974197  -0.801024000
|619> H  -0.273327441  -0.273557718  -1.475987117
|620> H   0.881826348  -1.162878009  -0.443202732
|621> *
|622> 
|623> 
|624> $new_job
|625> 
|626> # 5meoh.boyd.etal.dset.1meoh.dset-orca.engrad-mp2.def2tzvp
|627> ! MP2 def2-TZVP EnGrad TightSCF FrozenCore
|628> 
|629> %pal
|630>     nprocs 12
|631> end
|632> 
|633> %maxcore 8000
|634> 
|635> %scf
|636>     ConvForced true
|637> end
|638> 
|639> *xyz 0 1
|640> O  -0.055542506  -0.122445394   0.683773337
|641> H   0.885135816  -0.207117395   1.029591324
|642> C  -0.000120342   0.130934849  -0.722425087
|643> H  -1.027420925   0.231582020  -1.081561772
|644> H   0.480972904  -0.699236188  -1.253561315
|645> H   0.544459810   1.058297083  -0.940532889
|646> *
|647> 
|648> 
|649> $new_job
|650> 
|651> # 5meoh.boyd.etal.dset.1meoh.dset-orca.engrad-mp2.def2tzvp
|652> ! MP2 def2-TZVP EnGrad TightSCF FrozenCore
|653> 
|654> %pal
|655>     nprocs 12
|656> end
|657> 
|658> %maxcore 8000
|659> 
|660> %scf
|661>     ConvForced true
|662> end
|663> 
|664> *xyz 0 1
|665> O   0.467169142   0.245117226  -0.451188897
|666> H   0.547766047  -0.444437425  -1.154636182
|667> C  -0.482180369  -0.209774953   0.504177465
|668> H  -0.552430888   0.549858330   1.287844453
|669> H  -0.188935572  -1.163908735   0.967071513
|670> H  -1.476763691  -0.332928054   0.054283453
|671> *
|672> 
|673> 
|674> $new_job
|675> 
|676> # 5meoh.boyd.etal.dset.1meoh.dset-orca.engrad-mp2.def2tzvp
|677> ! MP2 def2-TZVP EnGrad TightSCF FrozenCore
|678> 
|679> %pal
|680>     nprocs 12
|681> end
|682> 
|683> %maxcore 8000
|684> 
|685> %scf
|686>     ConvForced true
|687> end
|688> 
|689> *xyz 0 1
|690> O  -0.123441663  -0.189125429  -0.654333889
|691> H  -1.100249118  -0.120498677  -0.799148141
|692> C   0.184513050   0.188594295   0.678083742
|693> H   1.267244586   0.101177005   0.804922332
|694> H  -0.304379516  -0.456474934   1.424054703
|695> H  -0.101722402   1.230759077   0.877276411
|696> *
|697> 
|698> 
|699> $new_job
|700> 
|701> # 5meoh.boyd.etal.dset.1meoh.dset-orca.engrad-mp2.def2tzvp
|702> ! MP2 def2-TZVP EnGrad TightSCF FrozenCore
|703> 
|704> %pal
|705>     nprocs 12
|706> end
|707> 
|708> %maxcore 8000
|709> 
|710> %scf
|711>     ConvForced true
|712> end
|713> 
|714> *xyz 0 1
|715> O  -0.028595324   0.507743979  -0.476904114
|716> H   0.059643160   1.358115367   0.022170188
|717> C   0.025064984  -0.573244371   0.457782282
|718> H  -0.543256264  -1.408492916   0.040708523
|719> H  -0.424305684  -0.293734932   1.420603530
|720> H   1.063178556  -0.885225056   0.632152319
|721> *
|722> 
|723> 
|724> $new_job
|725> 
|726> # 5meoh.boyd.etal.dset.1meoh.dset-orca.engrad-mp2.def2tzvp
|727> ! MP2 def2-TZVP EnGrad TightSCF FrozenCore
|728> 
|729> %pal
|730>     nprocs 12
|731> end
|732> 
|733> %maxcore 8000
|734> 
|735> %scf
|736>     ConvForced true
|737> end
|738> 
|739> *xyz 0 1
|740> O   0.512593465   0.066776016  -0.459026748
|741> H   0.499894891   1.006832336  -0.732367376
|742> C  -0.521993719  -0.123519840   0.484251644
|743> H  -0.491383115  -1.171200371   0.799946890
|744> H  -1.521942355   0.073155491   0.064176374
|745> H  -0.403602331   0.503056078   1.384669513
|746> *
|747> 
|748> 
|749> $new_job
|750> 
|751> # 5meoh.boyd.etal.dset.1meoh.dset-orca.engrad-mp2.def2tzvp
|752> ! MP2 def2-TZVP EnGrad TightSCF FrozenCore
|753> 
|754> %pal
|755>     nprocs 12
|756> end
|757> 
|758> %maxcore 8000
|759> 
|760> %scf
|761>     ConvForced true
|762> end
|763> 
|764> *xyz 0 1
|765> O  -0.035323517   0.011358270   0.693719363
|766> H   0.898178477   0.009989713   1.021287110
|767> C  -0.019588320  -0.010873350  -0.730055497
|768> H  -1.058735608  -0.018510522  -1.069590877
|769> H   0.475794468  -0.914247589  -1.109061708
|770> H   0.478926317   0.872029477  -1.155662797
|771> *
|772> 
|773> 
|774> $new_job
|775> 
|776> # 5meoh.boyd.etal.dset.1meoh.dset-orca.engrad-mp2.def2tzvp
|777> ! MP2 def2-TZVP EnGrad TightSCF FrozenCore
|778> 
|779> %pal
|780>     nprocs 12
|781> end
|782> 
|783> %maxcore 8000
|784> 
|785> %scf
|786>     ConvForced true
|787> end
|788> 
|789> *xyz 0 1
|790> O   0.529433314   0.172433152  -0.414635188
|791> H   0.707527489  -0.628388877  -0.971288736
|792> C  -0.551769968  -0.128560919   0.458341031
|793> H  -0.729478495   0.752084116   1.082226414
|794> H  -0.336708483  -0.985686869   1.113075948
|795> H  -1.470879797  -0.343356400  -0.103529854
|796> *
|797> 
|798> 
|799> $new_job
|800> 
|801> # 5meoh.boyd.etal.dset.1meoh.dset-orca.engrad-mp2.def2tzvp
|802> ! MP2 def2-TZVP EnGrad TightSCF FrozenCore
|803> 
|804> %pal
|805>     nprocs 12
|806> end
|807> 
|808> %maxcore 8000
|809> 
|810> %scf
|811>     ConvForced true
|812> end
|813> 
|814> *xyz 0 1
|815> O   0.018674051  -0.057508988  -0.691464055
|816> H  -0.926239258  -0.044853098  -0.998802927
|817> C   0.037473745   0.057302024   0.726239718
|818> H   1.081631538   0.016451957   1.048189061
|819> H  -0.511179188  -0.757588294   1.220759105
|820> H  -0.387199468   1.016099005   1.052550466
|821> *
|822> 
|823> 
|824> $new_job
|825> 
|826> # 5meoh.boyd.etal.dset.1meoh.dset-orca.engrad-mp2.def2tzvp
|827> ! MP2 def2-TZVP EnGrad TightSCF FrozenCore
|828> 
|829> %pal
|830>     nprocs 12
|831> end
|832> 
|833> %maxcore 8000
|834> 
|835> %scf
|836>     ConvForced true
|837> end
|838> 
|839> *xyz 0 1
|840> O  -0.565486532  -0.112516574   0.389135206
|841> H  -0.748743720   0.731182687   0.891153081
|842> C   0.590939987   0.064854247  -0.430787779
|843> H   0.813473710  -0.905987870  -0.879080227
|844> H   1.453549275   0.383533098   0.167280059
|845> H   0.416832577   0.804609993  -1.223364786
|846> *
|847> 
|848> 
|849> $new_job
|850> 
|851> # 5meoh.boyd.etal.dset.1meoh.dset-orca.engrad-mp2.def2tzvp
|852> ! MP2 def2-TZVP EnGrad TightSCF FrozenCore
|853> 
|854> %pal
|855>     nprocs 12
|856> end
|857> 
|858> %maxcore 8000
|859> 
|860> %scf
|861>     ConvForced true
|862> end
|863> 
|864> *xyz 0 1
|865> O   0.648449933   0.242062592  -0.024310623
|866> H   0.563531937   1.204173334   0.112943719
|867> C  -0.656522762  -0.304106371   0.016853925
|868> H  -0.595901156  -1.334068171  -0.350409034
|869> H  -1.367580105   0.248056913  -0.616649430
|870> H  -1.070675160  -0.337017052   1.039201163
|871> *
|872> 
|873> 
|874> $new_job
|875> 
|876> # 5meoh.boyd.etal.dset.1meoh.dset-orca.engrad-mp2.def2tzvp
|877> ! MP2 def2-TZVP EnGrad TightSCF FrozenCore
|878> 
|879> %pal
|880>     nprocs 12
|881> end
|882> 
|883> %maxcore 8000
|884> 
|885> %scf
|886>     ConvForced true
|887> end
|888> 
|889> *xyz 0 1
|890> O  -0.059974975  -0.328014022   0.610159467
|891> H  -0.597404853  -1.139330337   0.419113291
|892> C   0.094348102   0.384307130  -0.613403486
|893> H   0.748288897   1.238850346  -0.418561278
|894> H  -0.870578282   0.762489634  -0.977083022
|895> H   0.547502680  -0.234398851  -1.400065582
|896> *
|897> 
|898> 
|899> $new_job
|900> 
|901> # 5meoh.boyd.etal.dset.1meoh.dset-orca.engrad-mp2.def2tzvp
|902> ! MP2 def2-TZVP EnGrad TightSCF FrozenCore
|903> 
|904> %pal
|905>     nprocs 12
|906> end
|907> 
|908> %maxcore 8000
|909> 
|910> %scf
|911>     ConvForced true
|912> end
|913> 
|914> *xyz 0 1
|915> O  -0.178309251  -0.274563272  -0.611740908
|916> H  -0.922288571   0.286709917  -0.961219308
|917> C   0.226554675   0.246440141   0.647414082
|918> H   1.039071368  -0.382492285   1.022469388
|919> H  -0.589191924   0.244284307   1.385198117
|920> H   0.603326760   1.273448476   0.549976816
|921> *
|922> 
|923> 
|924> $new_job
|925> 
|926> # 5meoh.boyd.etal.dset.1meoh.dset-orca.engrad-mp2.def2tzvp
|927> ! MP2 def2-TZVP EnGrad TightSCF FrozenCore
|928> 
|929> %pal
|930>     nprocs 12
|931> end
|932> 
|933> %maxcore 8000
|934> 
|935> %scf
|936>     ConvForced true
|937> end
|938> 
|939> *xyz 0 1
|940> O   0.143318205   0.233563847  -0.639853771
|941> H   0.687945686   1.062147627  -0.523001083
|942> C  -0.181505402  -0.289094283   0.649380744
|943> H  -0.594919627  -1.288028205   0.496066597
|944> H  -0.919067605   0.338513648   1.168225604
|945> H   0.713776703  -0.375460784   1.277978494
|946> *
|947> 
|948> 
|949> $new_job
|950> 
|951> # 5meoh.boyd.etal.dset.1meoh.dset-orca.engrad-mp2.def2tzvp
|952> ! MP2 def2-TZVP EnGrad TightSCF FrozenCore
|953> 
|954> %pal
|955>     nprocs 12
|956> end
|957> 
|958> %maxcore 8000
|959> 
|960> %scf
|961>     ConvForced true
|962> end
|963> 
|964> *xyz 0 1
|965> O   0.613280665   0.278328345  -0.165823472
|966> H   1.306096940  -0.301629753   0.233005693
|967> C  -0.669197699  -0.249854469   0.146554994
|968> H  -1.414543412   0.398561657  -0.322020779
|969> H  -0.861637917  -0.273268385   1.229470441
|970> H  -0.791206168  -1.264697123  -0.254453755
|971> *
|972> 
|973> 
|974> $new_job
|975> 
|976> # 5meoh.boyd.etal.dset.1meoh.dset-orca.engrad-mp2.def2tzvp
|977> ! MP2 def2-TZVP EnGrad TightSCF FrozenCore
|978> 
|979> %pal
|980>     nprocs 12
|981> end
|982> 
|983> %maxcore 8000
|984> 
|985> %scf
|986>     ConvForced true
|987> end
|988> 
|989> *xyz 0 1
|990> O  -0.664662475   0.189005538  -0.020660837
|991> H  -0.669651645   1.145799427   0.174661303
|992> C   0.678055775  -0.248988679   0.009479845
|993> H   0.675478739  -1.328580412  -0.172614608
|994> H   1.166255726  -0.073046930   0.982851010
|995> H   1.299317650   0.222438852  -0.769879237
|996> *
|997> 
|998> 
|999> $new_job
|1000> 
|1001> # 5meoh.boyd.etal.dset.1meoh.dset-orca.engrad-mp2.def2tzvp
|1002> ! MP2 def2-TZVP EnGrad TightSCF FrozenCore
|1003> 
|1004> %pal
|1005>     nprocs 12
|1006> end
|1007> 
|1008> %maxcore 8000
|1009> 
|1010> %scf
|1011>     ConvForced true
|1012> end
|1013> 
|1014> *xyz 0 1
|1015> O  -0.028340244   0.000781865   0.694655243
|1016> H   0.911776366  -0.001605948   1.000128479
|1017> C  -0.027347360   0.000024539  -0.729651979
|1018> H  -1.068336645   0.055595529  -1.059236380
|1019> H   0.413293787  -0.924162280  -1.127026174
|1020> H   0.519031761   0.857468518  -1.146559275
|1021> *
|1022> 
|1023> 
|1024> $new_job
|1025> 
|1026> # 5meoh.boyd.etal.dset.1meoh.dset-orca.engrad-mp2.def2tzvp
|1027> ! MP2 def2-TZVP EnGrad TightSCF FrozenCore
|1028> 
|1029> %pal
|1030>     nprocs 12
|1031> end
|1032> 
|1033> %maxcore 8000
|1034> 
|1035> %scf
|1036>     ConvForced true
|1037> end
|1038> 
|1039> *xyz 0 1
|1040> O   0.551465388   0.149162606  -0.393708893
|1041> H   0.740221691  -0.670470122  -0.921297172
|1042> C  -0.574860877  -0.103574048   0.435134660
|1043> H  -0.760862704   0.797389974   1.026839480
|1044> H  -0.411350461  -0.947110220   1.122142314
|1045> H  -1.472142219  -0.313495665  -0.162865631
|1046> *
|1047> 
|1048> 
|1049> $new_job
|1050> 
|1051> # 5meoh.boyd.etal.dset.1meoh.dset-orca.engrad-mp2.def2tzvp
|1052> ! MP2 def2-TZVP EnGrad TightSCF FrozenCore
|1053> 
|1054> %pal
|1055>     nprocs 12
|1056> end
|1057> 
|1058> %maxcore 8000
|1059> 
|1060> %scf
|1061>     ConvForced true
|1062> end
|1063> 
|1064> *xyz 0 1
|1065> O   0.022573611  -0.041791774  -0.691934231
|1066> H  -0.920034700  -0.020383823  -1.007748846
|1067> C   0.033503318   0.040640096   0.727093167
|1068> H   1.075352999  -0.010864366   1.054728526
|1069> H  -0.523155066  -0.782582743   1.199262048
|1070> H  -0.389741158   0.992982921   1.073747968
|1071> *
|1072> 
|1073> 
|1074> $new_job
|1075> 
|1076> # 5meoh.boyd.etal.dset.1meoh.dset-orca.engrad-mp2.def2tzvp
|1077> ! MP2 def2-TZVP EnGrad TightSCF FrozenCore
|1078> 
|1079> %pal
|1080>     nprocs 12
|1081> end
|1082> 
|1083> %maxcore 8000
|1084> 
|1085> %scf
|1086>     ConvForced true
|1087> end
|1088> 
|1089> *xyz 0 1
|1090> O  -0.387762857   0.425374546  -0.392825690
|1091> H  -0.604848388   1.213964534   0.178553417
|1092> C   0.411079370  -0.484413635   0.369353455
|1093> H   0.549865980  -1.384813518  -0.234072358
|1094> H  -0.081271338  -0.763017384   1.310291939
|1095> H   1.393329053  -0.046414352   0.579886027
|1096> *
|1097> 
|1098> 
|1099> $new_job
|1100> 
|1101> # 5meoh.boyd.etal.dset.1meoh.dset-orca.engrad-mp2.def2tzvp
|1102> ! MP2 def2-TZVP EnGrad TightSCF FrozenCore
|1103> 
|1104> %pal
|1105>     nprocs 12
|1106> end
|1107> 
|1108> %maxcore 8000
|1109> 
|1110> %scf
|1111>     ConvForced true
|1112> end
|1113> 
|1114> *xyz 0 1
|1115> O   0.164095927  -0.672992053  -0.022503218
|1116> H  -0.685610513  -1.143141922   0.072484988
|1117> C  -0.117156930   0.714875743   0.017185776
|1118> H   0.837439492   1.241047738   0.122093386
|1119> H  -0.761462756   0.991673048   0.865192476
|1120> H  -0.599256313   1.075296837  -0.907330621
|1121> *
|1122> 
|1123> 
|1124> $new_job
|1125> 
|1126> # 5meoh.boyd.etal.dset.1meoh.dset-orca.engrad-mp2.def2tzvp
|1127> ! MP2 def2-TZVP EnGrad TightSCF FrozenCore
|1128> 
|1129> %pal
|1130>     nprocs 12
|1131> end
|1132> 
|1133> %maxcore 8000
|1134> 
|1135> %scf
|1136>     ConvForced true
|1137> end
|1138> 
|1139> *xyz 0 1
|1140> O  -0.242759364   0.183633503  -0.623342115
|1141> H   0.530664862   0.138668402  -1.244225482
|1142> C   0.202023917  -0.184459143   0.675232411
|1143> H  -0.647125718  -0.088495388   1.357345452
|1144> H   1.016980533   0.460172750   1.037340694
|1145> H   0.545828870  -1.227401442   0.698640422
|1146> *
|1147> 
|1148> 
|1149> $new_job
|1150> 
|1151> # 5meoh.boyd.etal.dset.1meoh.dset-orca.engrad-mp2.def2tzvp
|1152> ! MP2 def2-TZVP EnGrad TightSCF FrozenCore
|1153> 
|1154> %pal
|1155>     nprocs 12
|1156> end
|1157> 
|1158> %maxcore 8000
|1159> 
|1160> %scf
|1161>     ConvForced true
|1162> end
|1163> 
|1164> *xyz 0 1
|1165> O   0.332700906  -0.317215374  -0.523264463
|1166> H   0.539382330  -1.240371716  -0.210968516
|1167> C  -0.353733844   0.381268235   0.518955383
|1168> H  -0.489692738   1.413660441   0.187264256
|1169> H   0.223361700   0.383599831   1.453536538
|1170> H  -1.339381070  -0.064489676   0.692803522
|1171> *
|1172> 
|1173> 
|1174> $new_job
|1175> 
|1176> # 5meoh.boyd.etal.dset.1meoh.dset-orca.engrad-mp2.def2tzvp
|1177> ! MP2 def2-TZVP EnGrad TightSCF FrozenCore
|1178> 
|1179> %pal
|1180>     nprocs 12
|1181> end
|1182> 
|1183> %maxcore 8000
|1184> 
|1185> %scf
|1186>     ConvForced true
|1187> end
|1188> 
|1189> *xyz 0 1
|1190> O  -0.346242543  -0.371928069  -0.472728333
|1191> H  -1.280965570  -0.400435624  -0.153744269
|1192> C   0.410263169   0.381512262   0.464810015
|1193> H   1.448826522   0.389089656   0.122338218
|1194> H   0.379501599  -0.052042163   1.476042500
|1195> H   0.060321478   1.421419829   0.520965665
|1196> *
|1197> 
|1198> 
|1199> $new_job
|1200> 
|1201> # 5meoh.boyd.etal.dset.1meoh.dset-orca.engrad-mp2.def2tzvp
|1202> ! MP2 def2-TZVP EnGrad TightSCF FrozenCore
|1203> 
|1204> %pal
|1205>     nprocs 12
|1206> end
|1207> 
|1208> %maxcore 8000
|1209> 
|1210> %scf
|1211>     ConvForced true
|1212> end
|1213> 
|1214> *xyz 0 1
|1215> O  -0.666907997   0.176646697  -0.056388060
|1216> H  -0.701079598   1.162333615  -0.151395824
|1217> C   0.684046815  -0.239543883   0.064229505
|1218> H   0.688647451  -1.329629101   0.153076416
|1219> H   1.178990117   0.182665250   0.952332199
|1220> H   1.269098908   0.034886636  -0.824246564
|1221> *
|1222> 
|1223> 
|1224> $new_job
|1225> 
|1226> # 5meoh.boyd.etal.dset.1meoh.dset-orca.engrad-mp2.def2tzvp
|1227> ! MP2 def2-TZVP EnGrad TightSCF FrozenCore
|1228> 
|1229> %pal
|1230>     nprocs 12
|1231> end
|1232> 
|1233> %maxcore 8000
|1234> 
|1235> %scf
|1236>     ConvForced true
|1237> end
|1238> 
|1239> *xyz 0 1
|1240> O  -0.090093535   0.671542457   0.146406318
|1241> H   0.810957366   1.035373398   0.231747062
|1242> C   0.038656596  -0.707270500  -0.154667503
|1243> H  -0.956382139  -1.155847485  -0.066695738
|1244> H   0.717454290  -1.229064564   0.536374631
|1245> H   0.397528073  -0.882950746  -1.182518424
|1246> *
|1247> 
|1248> 
|1249> $new_job
|1250> 
|1251> # 5meoh.boyd.etal.dset.1meoh.dset-orca.engrad-mp2.def2tzvp
|1252> ! MP2 def2-TZVP EnGrad TightSCF FrozenCore
|1253> 
|1254> %pal
|1255>     nprocs 12
|1256> end
|1257> 
|1258> %maxcore 8000
|1259> 
|1260> %scf
|1261>     ConvForced true
|1262> end
|1263> 
|1264> *xyz 0 1
|1265> O  -0.202061423   0.065899371  -0.664981053
|1266> H  -0.160370825  -0.855158874  -1.046744587
|1267> C   0.205088135  -0.011334430   0.707057069
|1268> H   0.211356570   1.005983555   1.106773678
|1269> H   1.209063246  -0.442435158   0.778122962
|1270> H  -0.496276655  -0.619450843   1.292721138
|1271> *
|1272> 
|1273> 
|1274> $new_job
|1275> 
|1276> # 5meoh.boyd.etal.dset.1meoh.dset-orca.engrad-mp2.def2tzvp
|1277> ! MP2 def2-TZVP EnGrad TightSCF FrozenCore
|1278> 
|1279> %pal
|1280>     nprocs 12
|1281> end
|1282> 
|1283> %maxcore 8000
|1284> 
|1285> %scf
|1286>     ConvForced true
|1287> end
|1288> 
|1289> *xyz 0 1
|1290> O   0.154544057  -0.145623627   0.660003990
|1291> H  -0.696513697  -0.386734481   1.096791392
|1292> C  -0.107262035   0.162783826  -0.701091262
|1293> H   0.849139516   0.405909757  -1.172776384
|1294> H  -0.770981176   1.033539066  -0.800242425
|1295> H  -0.556812201  -0.680762315  -1.246726634
|1296> *
|1297> 
|1298> 
|1299> $new_job
|1300> 
|1301> # 5meoh.boyd.etal.dset.1meoh.dset-orca.engrad-mp2.def2tzvp
|1302> ! MP2 def2-TZVP EnGrad TightSCF FrozenCore
|1303> 
|1304> %pal
|1305>     nprocs 12
|1306> end
|1307> 
|1308> %maxcore 8000
|1309> 
|1310> %scf
|1311>     ConvForced true
|1312> end
|1313> 
|1314> *xyz 0 1
|1315> O   0.587627927   0.024866995  -0.369086622
|1316> H   1.257920418   0.444815958   0.211161099
|1317> C  -0.641198262  -0.050849060   0.343560221
|1318> H  -1.364810717  -0.546011502  -0.309412409
|1319> H  -1.027717754   0.947409554   0.592111170
|1320> H  -0.553102473  -0.635040540   1.271308333
|1321> *
|1322> 
|1323> 
|1324> $new_job
|1325> 
|1326> # 5meoh.boyd.etal.dset.1meoh.dset-orca.engrad-mp2.def2tzvp
|1327> ! MP2 def2-TZVP EnGrad TightSCF FrozenCore
|1328> 
|1329> %pal
|1330>     nprocs 12
|1331> end
|1332> 
|1333> %maxcore 8000
|1334> 
|1335> %scf
|1336>     ConvForced true
|1337> end
|1338> 
|1339> *xyz 0 1
|1340> O  -0.362874294   0.150934834   0.573662404
|1341> H  -1.211722034   0.556614690   0.290404771
|1342> C   0.423642446  -0.180673870  -0.571471183
[...]
------------------------------------

Gathering the parts of the W-matrix              ...                                                      done
Forming the Z-density                            ... done
Transforming Z to the AO basis                   ... done
Calculating G(Z)                                 ... done
Finalizing the W-matrix                          ...                                                      done
Transforming W to the AO basis and storing       ... done

                *********************************************
                * UNRELAXED MP2 DENSITY POPULATION ANALYSIS *
                *********************************************

------------------------------------------------------------------------------
                           ORCA POPULATION ANALYSIS
------------------------------------------------------------------------------
Input electron density              ... 5meoh.boyd.etal.dset.1meoh.dset-orca.engrad-mp2.def2tzvp_job70.pmp2ur
BaseName (.gbw .S,...)              ... 5meoh.boyd.etal.dset.1meoh.dset-orca.engrad-mp2.def2tzvp_job70

                    ********************************
                    * MULLIKEN POPULATION ANALYSIS *
                    ********************************

-----------------------
MULLIKEN ATOMIC CHARGES
-----------------------
   0 O :   -0.528639
   1 H :    0.325950
   2 C :   -0.091547
   3 H :    0.110271
   4 H :    0.091894
   5 H :    0.092071
Sum of atomic charges:   -0.0000000

--------------------------------
MULLIKEN REDUCED ORBITAL CHARGES
--------------------------------
  0 O s       :     3.796122  s :     3.796122
      pz      :     1.451158  p :     4.667542
      px      :     1.445799
      py      :     1.770584
      dz2     :     0.012947  d :     0.060507
      dxz     :     0.010155
      dyz     :     0.012971
      dx2y2   :     0.014805
      dxy     :     0.009629
      f0      :     0.000562  f :     0.004469
      f+1     :     0.000511
      f-1     :     0.000956
      f+2     :     0.000778
      f-2     :     0.000466
      f+3     :     0.000658
      f-3     :     0.000538
  1 H s       :     0.627696  s :     0.627696
      pz      :     0.018876  p :     0.046354
      px      :     0.010754
      py      :     0.016724
  2 C s       :     3.189651  s :     3.189651
      pz      :     1.004971  p :     2.752782
      px      :     0.713845
      py      :     1.033966
      dz2     :     0.024960  d :     0.136695
      dxz     :     0.030575
      dyz     :     0.020975
      dx2y2   :     0.026163
      dxy     :     0.034021
      f0      :     0.000957  f :     0.012420
      f+1     :     0.002227
      f-1     :     0.001204
      f+2     :     0.002178
      f-2     :     0.001519
      f+3     :     0.001820
      f-3     :     0.002514
  3 H s       :     0.865448  s :     0.865448
      pz      :     0.012784  p :     0.024281
      px      :     0.003511
      py      :     0.007985
  4 H s       :     0.884912  s :     0.884912
      pz      :     0.005097  p :     0.023194
      px      :     0.004316
      py      :     0.013782
  5 H s       :     0.884805  s :     0.884805
      pz      :     0.008024  p :     0.023125
      px      :     0.008870
      py      :     0.006230


                     *******************************
                     * LOEWDIN POPULATION ANALYSIS *
                     *******************************

----------------------
LOEWDIN ATOMIC CHARGES
----------------------
   0 O :   -0.104324
   1 H :    0.178241
   2 C :   -0.355873
   3 H :    0.103324
   4 H :    0.089260
   5 H :    0.089372

-------------------------------
LOEWDIN REDUCED ORBITAL CHARGES
-------------------------------
  0 O s       :     3.377032  s :     3.377032
      pz      :     1.427315  p :     4.620707
      px      :     1.500059
      py      :     1.693333
      dz2     :     0.021555  d :     0.099313
      dxz     :     0.019256
      dyz     :     0.018835
      dx2y2   :     0.022743
      dxy     :     0.016924
      f0      :     0.000745  f :     0.007273
      f+1     :     0.001064
      f-1     :     0.001358
      f+2     :     0.001309
      f-2     :     0.000664
      f+3     :     0.001045
      f-3     :     0.001089
  1 H s       :     0.666315  s :     0.666315
      pz      :     0.070624  p :     0.155444
      px      :     0.030157
      py      :     0.054663
  2 C s       :     2.858879  s :     2.858879
      pz      :     1.044749  p :     2.980692
      px      :     0.857069
      py      :     1.078873
      dz2     :     0.069669  d :     0.452466
      dxz     :     0.105340
      dyz     :     0.057887
      dx2y2   :     0.110173
      dxy     :     0.109397
      f0      :     0.005253  f :     0.063836
      f+1     :     0.013325
      f-1     :     0.003614
      f+2     :     0.009356
      f-2     :     0.007881
      f+3     :     0.010463
      f-3     :     0.013943
  3 H s       :     0.833134  s :     0.833134
      pz      :     0.032815  p :     0.063542
      px      :     0.009143
      py      :     0.021584
  4 H s       :     0.847548  s :     0.847548
      pz      :     0.014638  p :     0.063192
      px      :     0.011550
      py      :     0.037004
  5 H s       :     0.847479  s :     0.847479
      pz      :     0.022426  p :     0.063149
      px      :     0.023175
      py      :     0.017548


                      *****************************
                      * MAYER POPULATION ANALYSIS *
                      *****************************

  NA   - Mulliken gross atomic population
  ZA   - Total nuclear charge
  QA   - Mulliken gross atomic charge
  VA   - Mayer's total valence
  BVA  - Mayer's bonded valence
  FA   - Mayer's free valence

  ATOM       NA         ZA         QA         VA         BVA        FA
  0 O      8.5286     8.0000    -0.5286     2.0964     1.6970     0.3994
  1 H      0.6740     1.0000     0.3260     0.9066     0.8554     0.0511
  2 C      6.0915     6.0000    -0.0915     4.0066     3.7286     0.2780
  3 H      0.8897     1.0000     0.1103     0.9711     0.9240     0.0471
  4 H      0.9081     1.0000     0.0919     0.9702     0.9207     0.0495
  5 H      0.9079     1.0000     0.0921     0.9706     0.9211     0.0495

  Mayer bond orders larger than 0.100000
B(  0-O ,  1-H ) :   0.8463 B(  0-O ,  2-C ) :   0.8782 B(  2-C ,  3-H ) :   0.9467 
B(  2-C ,  4-H ) :   0.9483 B(  2-C ,  5-H ) :   0.9486 


                *******************************************
                * RELAXED MP2 DENSITY POPULATION ANALYSIS *
                *******************************************

------------------------------------------------------------------------------
                           ORCA POPULATION ANALYSIS
------------------------------------------------------------------------------
Input electron density              ... 5meoh.boyd.etal.dset.1meoh.dset-orca.engrad-mp2.def2tzvp_job70.pmp2re
BaseName (.gbw .S,...)              ... 5meoh.boyd.etal.dset.1meoh.dset-orca.engrad-mp2.def2tzvp_job70

                    ********************************
                    * MULLIKEN POPULATION ANALYSIS *
                    ********************************

-----------------------
MULLIKEN ATOMIC CHARGES
-----------------------
   0 O :   -0.491051
   1 H :    0.320455
   2 C :   -0.173657
   3 H :    0.128577
   4 H :    0.107739
   5 H :    0.107938
Sum of atomic charges:   -0.0000000

--------------------------------
MULLIKEN REDUCED ORBITAL CHARGES
--------------------------------
  0 O s       :     3.797179  s :     3.797179
      pz      :     1.438620  p :     4.631126
      px      :     1.436431
      py      :     1.756075
      dz2     :     0.012307  d :     0.058339
      dxz     :     0.010011
      dyz     :     0.012226
      dx2y2   :     0.013819
      dxy     :     0.009976
      f0      :     0.000552  f :     0.004407
      f+1     :     0.000515
      f-1     :     0.000926
      f+2     :     0.000760
      f-2     :     0.000470
      f+3     :     0.000640
      f-3     :     0.000545
  1 H s       :     0.632526  s :     0.632526
      pz      :     0.018281  p :     0.047019
      px      :     0.011389
      py      :     0.017350
  2 C s       :     3.211526  s :     3.211526
      pz      :     1.029845  p :     2.823027
      px      :     0.731121
      py      :     1.062061
      dz2     :     0.024663  d :     0.127227
      dxz     :     0.027018
      dyz     :     0.018656
      dx2y2   :     0.022957
      dxy     :     0.033934
      f0      :     0.000910  f :     0.011877
      f+1     :     0.002155
      f-1     :     0.001127
      f+2     :     0.002052
      f-2     :     0.001447
      f+3     :     0.001773
      f-3     :     0.002413
  3 H s       :     0.848304  s :     0.848304
      pz      :     0.011718  p :     0.023119
      px      :     0.003698
      py      :     0.007703
  4 H s       :     0.870175  s :     0.870175
      pz      :     0.005200  p :     0.022086
      px      :     0.004409
      py      :     0.012477
  5 H s       :     0.870051  s :     0.870051
      pz      :     0.007623  p :     0.022012
      px      :     0.008194
      py      :     0.006195


                     *******************************
                     * LOEWDIN POPULATION ANALYSIS *
                     *******************************

----------------------
LOEWDIN ATOMIC CHARGES
----------------------
   0 O :   -0.091584
   1 H :    0.180735
   2 C :   -0.390648
   3 H :    0.110651
   4 H :    0.095323
   5 H :    0.095522

-------------------------------
LOEWDIN REDUCED ORBITAL CHARGES
-------------------------------
  0 O s       :     3.379757  s :     3.379757
      pz      :     1.427130  p :     4.605681
      px      :     1.492962
      py      :     1.685589
      dz2     :     0.021288  d :     0.098764
      dxz     :     0.019280
      dyz     :     0.018510
      dx2y2   :     0.022231
      dxy     :     0.017454
      f0      :     0.000754  f :     0.007382
      f+1     :     0.001083
      f-1     :     0.001368
      f+2     :     0.001333
      f-2     :     0.000671
      f+3     :     0.001060
      f-3     :     0.001113
  1 H s       :     0.663224  s :     0.663224
      pz      :     0.070096  p :     0.156041
      px      :     0.030637
      py      :     0.055308
  2 C s       :     2.864686  s :     2.864686
      pz      :     1.059327  p :     3.020401
      px      :     0.866073
      py      :     1.095001
      dz2     :     0.068490  d :     0.443301
      dxz     :     0.101884
      dyz     :     0.055450
      dx2y2   :     0.106851
      dxy     :     0.110626
      f0      :     0.005161  f :     0.062259
      f+1     :     0.013038
      f-1     :     0.003526
      f+2     :     0.009104
      f-2     :     0.007660
      f+3     :     0.010281
      f-3     :     0.013489
  3 H s       :     0.825449  s :     0.825449
      pz      :     0.032551  p :     0.063900
      px      :     0.009588
      py      :     0.021761
  4 H s       :     0.840761  s :     0.840761
      pz      :     0.015082  p :     0.063916
      px      :     0.012124
      py      :     0.036710
  5 H s       :     0.840605  s :     0.840605
      pz      :     0.022559  p :     0.063873
      px      :     0.023461
      py      :     0.017853


                      *****************************
                      * MAYER POPULATION ANALYSIS *
                      *****************************

  NA   - Mulliken gross atomic population
  ZA   - Total nuclear charge
  QA   - Mulliken gross atomic charge
  VA   - Mayer's total valence
  BVA  - Mayer's bonded valence
  FA   - Mayer's free valence

  ATOM       NA         ZA         QA         VA         BVA        FA
  0 O      8.4911     8.0000    -0.4911     2.1520     1.7589     0.3931
  1 H      0.6795     1.0000     0.3205     0.9092     0.8579     0.0512
  2 C      6.1737     6.0000    -0.1737     4.0276     3.7518     0.2758
  3 H      0.8714     1.0000     0.1286     0.9625     0.9160     0.0465
  4 H      0.8923     1.0000     0.1077     0.9628     0.9139     0.0489
  5 H      0.8921     1.0000     0.1079     0.9635     0.9145     0.0489

  Mayer bond orders larger than 0.100000
B(  0-O ,  1-H ) :   0.8467 B(  0-O ,  2-C ) :   0.9300 B(  2-C ,  3-H ) :   0.9385 
B(  2-C ,  4-H ) :   0.9373 B(  2-C ,  5-H ) :   0.9379 


----------------------------------
MP2 DERIVATIVE INTEGRAL GENERATION
----------------------------------


Input Wavefunction Amplitudes       ... 5meoh.boyd.etal.dset.1meoh.dset-orca.engrad-mp2.def2tzvp_job70.mp2tsaa.tmp
Input Correlated Electron Density   ... 5meoh.boyd.etal.dset.1meoh.dset-orca.engrad-mp2.def2tzvp_job70.pmp2re
Input Energy Weighted Density       ... 5meoh.boyd.etal.dset.1meoh.dset-orca.engrad-mp2.def2tzvp_job70.wmp2.tmp
Input SCF Electron Density          ... 5meoh.boyd.etal.dset.1meoh.dset-orca.engrad-mp2.def2tzvp_job70.scfp

One-Electron Terms    ...
                        ... One-Electron Terms done
Prescreening matrices              ... done

Batch handling in the gradient evaluation:
Memory available                      ... 8000.0 MB
Memory per occupied orbital in Q2     ...    0.4 MB
Memory per occupied orbital in Q3     ...    0.0 MB
Total memory requirement per |i>      ...    0.4 MB
Max. Number of orbitals possible      ...  18729
Number of orbitals treated per batch  ...      7
Number of batches to be done          ...      1
Batch   0: i=    2 ...     8

---------------------------------------
MP2 TOTAL ENERGY:     -115.507298915 Eh
---------------------------------------

The final MP2 gradient
  0:  -0.00216804   0.00564814   0.01113623
  1:   0.00035116  -0.00592235  -0.01049658
  2:   0.01126172   0.00110040  -0.00359109
  3:  -0.00154904   0.00201989   0.00382860
  4:  -0.00293702  -0.00423806   0.00148896
  5:  -0.00495878   0.00139197  -0.00236612

-----------------------------------
NORM OF THE MP2 GRADIENT:  0.023000
-----------------------------------

-------------------------   --------------------
FINAL SINGLE POINT ENERGY      -115.507298914794
-------------------------   --------------------


                            ***************************************
                            *     ORCA property calculations      *
                            ***************************************

                                    ---------------------
                                    Active property flags
                                    ---------------------
   (+) Dipole Moment


------------------------------------------------------------------------------
                       ORCA ELECTRIC PROPERTIES CALCULATION
------------------------------------------------------------------------------

Dipole Moment Calculation                       ... on
Quadrupole Moment Calculation                   ... off
Polarizability Calculation                      ... off
GBWName                                         ... 5meoh.boyd.etal.dset.1meoh.dset-orca.engrad-mp2.def2tzvp_job70.gbw
Electron density file                           ... 5meoh.boyd.etal.dset.1meoh.dset-orca.engrad-mp2.def2tzvp_job70.scfp
The origin for moment calculation is the CENTER OF MASS  = (-0.000079, -0.000007  0.000026)

-------------
DIPOLE MOMENT
-------------
                                X             Y             Z
Electronic contribution:      1.70458       0.15356      -0.56749
Nuclear contribution   :     -2.24968      -0.49999       0.24583
                        -----------------------------------------
Total Dipole Moment    :     -0.54510      -0.34643      -0.32166
                        -----------------------------------------
Magnitude (a.u.)       :      0.72153
Magnitude (Debye)      :      1.83399



--------------------
Rotational spectrum 
--------------------
 
Rotational constants in cm-1:     4.237991     0.829652     0.799192 
Rotational constants in MHz : 127051.761372 24872.355043 23959.180024 

 Dipole components along the rotational axes: 
x,y,z [a.u.] :    -0.374654    -0.616639     0.000947 
x,y,z [Debye]:    -0.952296    -1.567372     0.002408 

 

                         *** MP2 UNRELAXED DENSITY ***

------------------------------------------------------------------------------
                       ORCA ELECTRIC PROPERTIES CALCULATION
------------------------------------------------------------------------------

Dipole Moment Calculation                       ... on
Quadrupole Moment Calculation                   ... off
Polarizability Calculation                      ... off
GBWName                                         ... 5meoh.boyd.etal.dset.1meoh.dset-orca.engrad-mp2.def2tzvp_job70.gbw
Electron density file                           ... 5meoh.boyd.etal.dset.1meoh.dset-orca.engrad-mp2.def2tzvp_job70.pmp2ur
The origin for moment calculation is the CENTER OF MASS  = (-0.000079, -0.000007  0.000026)

-------------
DIPOLE MOMENT
-------------
                                X             Y             Z
Electronic contribution:      1.71824       0.15947      -0.56424
Nuclear contribution   :     -2.24968      -0.49999       0.24583
                        -----------------------------------------
Total Dipole Moment    :     -0.53143      -0.34051      -0.31841
                        -----------------------------------------
Magnitude (a.u.)       :      0.70693
Magnitude (Debye)      :      1.79688



--------------------
Rotational spectrum 
--------------------
 
Rotational constants in cm-1:     4.237991     0.829652     0.799192 
Rotational constants in MHz : 127051.761372 24872.355043 23959.180024 

 Dipole components along the rotational axes: 
x,y,z [a.u.] :    -0.363368    -0.606397     0.000997 
x,y,z [Debye]:    -0.923609    -1.541338     0.002533 

 

                           *** MP2 RELAXED DENSITY ***

------------------------------------------------------------------------------
                       ORCA ELECTRIC PROPERTIES CALCULATION
------------------------------------------------------------------------------

Dipole Moment Calculation                       ... on
Quadrupole Moment Calculation                   ... off
Polarizability Calculation                      ... off
GBWName                                         ... 5meoh.boyd.etal.dset.1meoh.dset-orca.engrad-mp2.def2tzvp_job70.gbw
Electron density file                           ... 5meoh.boyd.etal.dset.1meoh.dset-orca.engrad-mp2.def2tzvp_job70.pmp2re
The origin for moment calculation is the CENTER OF MASS  = (-0.000079, -0.000007  0.000026)

-------------
DIPOLE MOMENT
-------------
                                X             Y             Z
Electronic contribution:      1.73814       0.16685      -0.56219
Nuclear contribution   :     -2.24968      -0.49999       0.24583
                        -----------------------------------------
Total Dipole Moment    :     -0.51153      -0.33314      -0.31636
                        -----------------------------------------
Magnitude (a.u.)       :      0.68756
Magnitude (Debye)      :      1.74763



--------------------
Rotational spectrum 
--------------------
 
Rotational constants in cm-1:     4.237991     0.829652     0.799192 
Rotational constants in MHz : 127051.761372 24872.355043 23959.180024 

 Dipole components along the rotational axes: 
x,y,z [a.u.] :    -0.345865    -0.594228     0.001362 
x,y,z [Debye]:    -0.879119    -1.510409     0.003462 

 

Timings for individual modules:

Sum of individual times         ...       19.579 sec (=   0.326 min)
GTO integral calculation        ...        4.451 sec (=   0.074 min)  22.7 %
SCF iterations                  ...        8.145 sec (=   0.136 min)  41.6 %
MP2 module                      ...        6.984 sec (=   0.116 min)  35.7 %



                             ****ORCA TERMINATED NORMALLY****
TOTAL RUN TIME: 0 days 0 hours 24 minutes 17 seconds 949 msec
