
                                 *****************
                                 * O   R   C   A *
                                 *****************

           --- An Ab Initio, DFT and Semiempirical electronic structure package ---

                  #######################################################
                  #                        -***-                        #
                  #          Department of theory and spectroscopy      #
                  #               Directorship: Frank Neese             #
                  #        Max Planck Institute fuer Kohlenforschung    #
                  #                Kaiser Wilhelm Platz 1               #
                  #                 D-45470 Muelheim/Ruhr               #
                  #                      Germany                        #
                  #                                                     #
                  #                  All rights reserved                #
                  #                        -***-                        #
                  #######################################################


                         Program Version 4.2.0 -  RELEASE  -


 With contributions from (in alphabetic order):
   Daniel Aravena         : Magnetic Suceptibility
   Michael Atanasov       : Ab Initio Ligand Field Theory (pilot matlab implementation)
   Alexander A. Auer      : GIAO ZORA, VPT2
   Ute Becker             : Parallelization
   Giovanni Bistoni       : ED, misc. LED, open-shell LED, HFLED
   Martin Brehm           : Molecular dynamics
   Dmytro Bykov           : SCF Hessian
   Vijay G. Chilkuri      : MRCI spin determinant printing, contributions to CSF-ICE
   Dipayan Datta          : RHF DLPNO-CCSD density
   Achintya Kumar Dutta   : EOM-CC, STEOM-CC
   Dmitry Ganyushin       : Spin-Orbit,Spin-Spin,Magnetic field MRCI
   Miquel Garcia          : C-PCM Hessian, Gaussian charge scheme
   Yang Guo               : DLPNO-NEVPT2, CIM, IAO-localization
   Andreas Hansen         : Spin unrestricted coupled pair/coupled cluster methods
   Benjamin Helmich-Paris : CASSCF linear response (MC-RPA)
   Lee Huntington         : MR-EOM, pCC
   Robert Izsak           : Overlap fitted RIJCOSX, COSX-SCS-MP3, EOM
   Christian Kollmar      : KDIIS, OOCD, Brueckner-CCSD(T), CCSD density
   Simone Kossmann        : Meta GGA functionals, TD-DFT gradient, OOMP2, MP2 Hessian
   Martin Krupicka        : AUTO-CI
   Lucas Lang             : DCDCAS
   Dagmar Lenk            : GEPOL surface, SMD
   Dimitrios Liakos       : Extrapolation schemes; Compound Job, initial MDCI parallelization
   Dimitrios Manganas     : Further ROCIS development; embedding schemes
   Dimitrios Pantazis     : SARC Basis sets
   Taras Petrenko         : DFT Hessian,TD-DFT gradient, ASA, ECA, R-Raman, ABS, FL, XAS/XES, NRVS
   Peter Pinski           : DLPNO-MP2, DLPNO-MP2 Gradient
   Christoph Reimann      : Effective Core Potentials
   Marius Retegan         : Local ZFS, SOC
   Christoph Riplinger    : Optimizer, TS searches, QM/MM, DLPNO-CCSD(T), (RO)-DLPNO pert. Triples
   Tobias Risthaus        : Range-separated hybrids, TD-DFT gradient, RPA, STAB
   Michael Roemelt        : Original ROCIS implementation
   Masaaki Saitow         : Open-shell DLPNO-CCSD energy and density
   Barbara Sandhoefer     : DKH picture change effects
   Avijit Sen             : IP-ROCIS
   Kantharuban Sivalingam : CASSCF convergence, NEVPT2, FIC-MRCI
   Bernardo de Souza      : ESD, SOC TD-DFT
   Georgi Stoychev        : AutoAux, RI-MP2 NMR
   Willem Van den Heuvel  : Paramagnetic NMR
   Boris Wezisla          : Elementary symmetry handling
   Frank Wennmohs         : Technical directorship


 We gratefully acknowledge several colleagues who have allowed us to
 interface, adapt or use parts of their codes:
   Stefan Grimme, W. Hujo, H. Kruse,             : VdW corrections, initial TS optimization,
                  C. Bannwarth                     DFT functionals, gCP, sTDA/sTD-DF
   Ed Valeev, F. Pavosevic, A. Kumar             : LibInt (2-el integral package), F12 methods
   Garnet Chan, S. Sharma, J. Yang, R. Olivares  : DMRG
   Ulf Ekstrom                                   : XCFun DFT Library
   Mihaly Kallay                                 : mrcc  (arbitrary order and MRCC methods)
   Andreas Klamt, Michael Diedenhofen            : otool_cosmo (COSMO solvation model)
   Jiri Pittner, Ondrej Demel                    : Mk-CCSD
   Frank Weinhold                                : gennbo (NPA and NBO analysis)
   Christopher J. Cramer and Donald G. Truhlar   : smd solvation model
   Lars Goerigk                                  : TD-DFT with DH, B97 family of functionals
   V. Asgeirsson, H. Jonsson                     : NEB implementation
   FAccTs GmbH                                   : IRC, NEB, NEB-TS, Multilevel, MM, QM/MM, CI optimization
   S Lehtola, MJT Oliveira, MAL Marques          : LibXC Library


 Your calculation uses the libint2 library for the computation of 2-el integrals
 For citations please refer to: http://libint.valeyev.net

 Your ORCA version has been built with support for libXC version: 4.2.3
 For citations please refer to: https://tddft.org/programs/libxc/

 This ORCA versions uses:
   CBLAS   interface :  Fast vector & matrix operations
   LAPACKE interface :  Fast linear algebra routines
   SCALAPACK package :  Parallel linear algebra routines


----- Orbital basis set information -----
Your calculation utilizes the basis: def2-TZVP
   F. Weigend and R. Ahlrichs, Phys. Chem. Chem. Phys. 7, 3297 (2005).

================================================================================
                                        WARNINGS
                       Please study these warnings very carefully!
================================================================================


WARNING: The frozen-core approximation for MP2-gradient calculations is turned on by default.

INFO   : the flag for use of LIBINT has been found!

----- Orbital basis set information -----
Your calculation utilizes the basis: def2-TZVP
   F. Weigend and R. Ahlrichs, Phys. Chem. Chem. Phys. 7, 3297 (2005).

================================================================================
                                        WARNINGS
                       Please study these warnings very carefully!
================================================================================


WARNING: The frozen-core approximation for MP2-gradient calculations is turned on by default.

INFO   : the flag for use of LIBINT has been found!

----- Orbital basis set information -----
Your calculation utilizes the basis: def2-TZVP
   F. Weigend and R. Ahlrichs, Phys. Chem. Chem. Phys. 7, 3297 (2005).

================================================================================
                                        WARNINGS
                       Please study these warnings very carefully!
================================================================================


WARNING: The frozen-core approximation for MP2-gradient calculations is turned on by default.

INFO   : the flag for use of LIBINT has been found!

----- Orbital basis set information -----
Your calculation utilizes the basis: def2-TZVP
   F. Weigend and R. Ahlrichs, Phys. Chem. Chem. Phys. 7, 3297 (2005).

================================================================================
                                        WARNINGS
                       Please study these warnings very carefully!
================================================================================


WARNING: The frozen-core approximation for MP2-gradient calculations is turned on by default.

INFO   : the flag for use of LIBINT has been found!

----- Orbital basis set information -----
Your calculation utilizes the basis: def2-TZVP
   F. Weigend and R. Ahlrichs, Phys. Chem. Chem. Phys. 7, 3297 (2005).

================================================================================
                                        WARNINGS
                       Please study these warnings very carefully!
================================================================================


WARNING: The frozen-core approximation for MP2-gradient calculations is turned on by default.

INFO   : the flag for use of LIBINT has been found!

----- Orbital basis set information -----
Your calculation utilizes the basis: def2-TZVP
   F. Weigend and R. Ahlrichs, Phys. Chem. Chem. Phys. 7, 3297 (2005).

================================================================================
                                        WARNINGS
                       Please study these warnings very carefully!
================================================================================


WARNING: The frozen-core approximation for MP2-gradient calculations is turned on by default.

INFO   : the flag for use of LIBINT has been found!

----- Orbital basis set information -----
Your calculation utilizes the basis: def2-TZVP
   F. Weigend and R. Ahlrichs, Phys. Chem. Chem. Phys. 7, 3297 (2005).

================================================================================
                                        WARNINGS
                       Please study these warnings very carefully!
================================================================================


WARNING: The frozen-core approximation for MP2-gradient calculations is turned on by default.

INFO   : the flag for use of LIBINT has been found!

----- Orbital basis set information -----
Your calculation utilizes the basis: def2-TZVP
   F. Weigend and R. Ahlrichs, Phys. Chem. Chem. Phys. 7, 3297 (2005).

================================================================================
                                        WARNINGS
                       Please study these warnings very carefully!
================================================================================


WARNING: The frozen-core approximation for MP2-gradient calculations is turned on by default.

INFO   : the flag for use of LIBINT has been found!

----- Orbital basis set information -----
Your calculation utilizes the basis: def2-TZVP
   F. Weigend and R. Ahlrichs, Phys. Chem. Chem. Phys. 7, 3297 (2005).

================================================================================
                                        WARNINGS
                       Please study these warnings very carefully!
================================================================================


WARNING: The frozen-core approximation for MP2-gradient calculations is turned on by default.

INFO   : the flag for use of LIBINT has been found!

----- Orbital basis set information -----
Your calculation utilizes the basis: def2-TZVP
   F. Weigend and R. Ahlrichs, Phys. Chem. Chem. Phys. 7, 3297 (2005).

================================================================================
                                        WARNINGS
                       Please study these warnings very carefully!
================================================================================


WARNING: The frozen-core approximation for MP2-gradient calculations is turned on by default.

INFO   : the flag for use of LIBINT has been found!

----- Orbital basis set information -----
Your calculation utilizes the basis: def2-TZVP
   F. Weigend and R. Ahlrichs, Phys. Chem. Chem. Phys. 7, 3297 (2005).

================================================================================
                                        WARNINGS
                       Please study these warnings very carefully!
================================================================================


WARNING: The frozen-core approximation for MP2-gradient calculations is turned on by default.

INFO   : the flag for use of LIBINT has been found!

----- Orbital basis set information -----
Your calculation utilizes the basis: def2-TZVP
   F. Weigend and R. Ahlrichs, Phys. Chem. Chem. Phys. 7, 3297 (2005).

================================================================================
                                        WARNINGS
                       Please study these warnings very carefully!
================================================================================


WARNING: The frozen-core approximation for MP2-gradient calculations is turned on by default.

INFO   : the flag for use of LIBINT has been found!

----- Orbital basis set information -----
Your calculation utilizes the basis: def2-TZVP
   F. Weigend and R. Ahlrichs, Phys. Chem. Chem. Phys. 7, 3297 (2005).

================================================================================
                                        WARNINGS
                       Please study these warnings very carefully!
================================================================================


WARNING: The frozen-core approximation for MP2-gradient calculations is turned on by default.

INFO   : the flag for use of LIBINT has been found!

----- Orbital basis set information -----
Your calculation utilizes the basis: def2-TZVP
   F. Weigend and R. Ahlrichs, Phys. Chem. Chem. Phys. 7, 3297 (2005).

================================================================================
                                        WARNINGS
                       Please study these warnings very carefully!
================================================================================


WARNING: The frozen-core approximation for MP2-gradient calculations is turned on by default.

INFO   : the flag for use of LIBINT has been found!

----- Orbital basis set information -----
Your calculation utilizes the basis: def2-TZVP
   F. Weigend and R. Ahlrichs, Phys. Chem. Chem. Phys. 7, 3297 (2005).

================================================================================
                                        WARNINGS
                       Please study these warnings very carefully!
================================================================================


WARNING: The frozen-core approximation for MP2-gradient calculations is turned on by default.

INFO   : the flag for use of LIBINT has been found!

----- Orbital basis set information -----
Your calculation utilizes the basis: def2-TZVP
   F. Weigend and R. Ahlrichs, Phys. Chem. Chem. Phys. 7, 3297 (2005).

================================================================================
                                        WARNINGS
                       Please study these warnings very carefully!
================================================================================


WARNING: The frozen-core approximation for MP2-gradient calculations is turned on by default.

INFO   : the flag for use of LIBINT has been found!

----- Orbital basis set information -----
Your calculation utilizes the basis: def2-TZVP
   F. Weigend and R. Ahlrichs, Phys. Chem. Chem. Phys. 7, 3297 (2005).

================================================================================
                                        WARNINGS
                       Please study these warnings very carefully!
================================================================================


WARNING: The frozen-core approximation for MP2-gradient calculations is turned on by default.

INFO   : the flag for use of LIBINT has been found!

----- Orbital basis set information -----
Your calculation utilizes the basis: def2-TZVP
   F. Weigend and R. Ahlrichs, Phys. Chem. Chem. Phys. 7, 3297 (2005).

================================================================================
                                        WARNINGS
                       Please study these warnings very carefully!
================================================================================


WARNING: The frozen-core approximation for MP2-gradient calculations is turned on by default.

INFO   : the flag for use of LIBINT has been found!

----- Orbital basis set information -----
Your calculation utilizes the basis: def2-TZVP
   F. Weigend and R. Ahlrichs, Phys. Chem. Chem. Phys. 7, 3297 (2005).

================================================================================
                                        WARNINGS
                       Please study these warnings very carefully!
================================================================================


WARNING: The frozen-core approximation for MP2-gradient calculations is turned on by default.

INFO   : the flag for use of LIBINT has been found!

----- Orbital basis set information -----
Your calculation utilizes the basis: def2-TZVP
   F. Weigend and R. Ahlrichs, Phys. Chem. Chem. Phys. 7, 3297 (2005).

================================================================================
                                        WARNINGS
                       Please study these warnings very carefully!
================================================================================


WARNING: The frozen-core approximation for MP2-gradient calculations is turned on by default.

INFO   : the flag for use of LIBINT has been found!

----- Orbital basis set information -----
Your calculation utilizes the basis: def2-TZVP
   F. Weigend and R. Ahlrichs, Phys. Chem. Chem. Phys. 7, 3297 (2005).

================================================================================
                                        WARNINGS
                       Please study these warnings very carefully!
================================================================================


WARNING: The frozen-core approximation for MP2-gradient calculations is turned on by default.

INFO   : the flag for use of LIBINT has been found!

----- Orbital basis set information -----
Your calculation utilizes the basis: def2-TZVP
   F. Weigend and R. Ahlrichs, Phys. Chem. Chem. Phys. 7, 3297 (2005).

================================================================================
                                        WARNINGS
                       Please study these warnings very carefully!
================================================================================


WARNING: The frozen-core approximation for MP2-gradient calculations is turned on by default.

INFO   : the flag for use of LIBINT has been found!

----- Orbital basis set information -----
Your calculation utilizes the basis: def2-TZVP
   F. Weigend and R. Ahlrichs, Phys. Chem. Chem. Phys. 7, 3297 (2005).

================================================================================
                                        WARNINGS
                       Please study these warnings very carefully!
================================================================================


WARNING: The frozen-core approximation for MP2-gradient calculations is turned on by default.

INFO   : the flag for use of LIBINT has been found!

----- Orbital basis set information -----
Your calculation utilizes the basis: def2-TZVP
   F. Weigend and R. Ahlrichs, Phys. Chem. Chem. Phys. 7, 3297 (2005).

================================================================================
                                        WARNINGS
                       Please study these warnings very carefully!
================================================================================


WARNING: The frozen-core approximation for MP2-gradient calculations is turned on by default.

INFO   : the flag for use of LIBINT has been found!

----- Orbital basis set information -----
Your calculation utilizes the basis: def2-TZVP
   F. Weigend and R. Ahlrichs, Phys. Chem. Chem. Phys. 7, 3297 (2005).

================================================================================
                                        WARNINGS
                       Please study these warnings very carefully!
================================================================================


WARNING: The frozen-core approximation for MP2-gradient calculations is turned on by default.

INFO   : the flag for use of LIBINT has been found!

----- Orbital basis set information -----
Your calculation utilizes the basis: def2-TZVP
   F. Weigend and R. Ahlrichs, Phys. Chem. Chem. Phys. 7, 3297 (2005).

================================================================================
                                        WARNINGS
                       Please study these warnings very carefully!
================================================================================


WARNING: The frozen-core approximation for MP2-gradient calculations is turned on by default.

INFO   : the flag for use of LIBINT has been found!

----- Orbital basis set information -----
Your calculation utilizes the basis: def2-TZVP
   F. Weigend and R. Ahlrichs, Phys. Chem. Chem. Phys. 7, 3297 (2005).

================================================================================
                                        WARNINGS
                       Please study these warnings very carefully!
================================================================================


WARNING: The frozen-core approximation for MP2-gradient calculations is turned on by default.

INFO   : the flag for use of LIBINT has been found!

----- Orbital basis set information -----
Your calculation utilizes the basis: def2-TZVP
   F. Weigend and R. Ahlrichs, Phys. Chem. Chem. Phys. 7, 3297 (2005).

================================================================================
                                        WARNINGS
                       Please study these warnings very carefully!
================================================================================


WARNING: The frozen-core approximation for MP2-gradient calculations is turned on by default.

INFO   : the flag for use of LIBINT has been found!

----- Orbital basis set information -----
Your calculation utilizes the basis: def2-TZVP
   F. Weigend and R. Ahlrichs, Phys. Chem. Chem. Phys. 7, 3297 (2005).

================================================================================
                                        WARNINGS
                       Please study these warnings very carefully!
================================================================================


WARNING: The frozen-core approximation for MP2-gradient calculations is turned on by default.

INFO   : the flag for use of LIBINT has been found!

----- Orbital basis set information -----
Your calculation utilizes the basis: def2-TZVP
   F. Weigend and R. Ahlrichs, Phys. Chem. Chem. Phys. 7, 3297 (2005).

================================================================================
                                        WARNINGS
                       Please study these warnings very carefully!
================================================================================


WARNING: The frozen-core approximation for MP2-gradient calculations is turned on by default.

INFO   : the flag for use of LIBINT has been found!

----- Orbital basis set information -----
Your calculation utilizes the basis: def2-TZVP
   F. Weigend and R. Ahlrichs, Phys. Chem. Chem. Phys. 7, 3297 (2005).

================================================================================
                                        WARNINGS
                       Please study these warnings very carefully!
================================================================================


WARNING: The frozen-core approximation for MP2-gradient calculations is turned on by default.

INFO   : the flag for use of LIBINT has been found!

----- Orbital basis set information -----
Your calculation utilizes the basis: def2-TZVP
   F. Weigend and R. Ahlrichs, Phys. Chem. Chem. Phys. 7, 3297 (2005).

================================================================================
                                        WARNINGS
                       Please study these warnings very carefully!
================================================================================


WARNING: The frozen-core approximation for MP2-gradient calculations is turned on by default.

INFO   : the flag for use of LIBINT has been found!

----- Orbital basis set information -----
Your calculation utilizes the basis: def2-TZVP
   F. Weigend and R. Ahlrichs, Phys. Chem. Chem. Phys. 7, 3297 (2005).

================================================================================
                                        WARNINGS
                       Please study these warnings very carefully!
================================================================================


WARNING: The frozen-core approximation for MP2-gradient calculations is turned on by default.

INFO   : the flag for use of LIBINT has been found!

----- Orbital basis set information -----
Your calculation utilizes the basis: def2-TZVP
   F. Weigend and R. Ahlrichs, Phys. Chem. Chem. Phys. 7, 3297 (2005).

================================================================================
                                        WARNINGS
                       Please study these warnings very carefully!
================================================================================


WARNING: The frozen-core approximation for MP2-gradient calculations is turned on by default.

INFO   : the flag for use of LIBINT has been found!

----- Orbital basis set information -----
Your calculation utilizes the basis: def2-TZVP
   F. Weigend and R. Ahlrichs, Phys. Chem. Chem. Phys. 7, 3297 (2005).

================================================================================
                                        WARNINGS
                       Please study these warnings very carefully!
================================================================================


WARNING: The frozen-core approximation for MP2-gradient calculations is turned on by default.

INFO   : the flag for use of LIBINT has been found!

----- Orbital basis set information -----
Your calculation utilizes the basis: def2-TZVP
   F. Weigend and R. Ahlrichs, Phys. Chem. Chem. Phys. 7, 3297 (2005).

================================================================================
                                        WARNINGS
                       Please study these warnings very carefully!
================================================================================


WARNING: The frozen-core approximation for MP2-gradient calculations is turned on by default.

INFO   : the flag for use of LIBINT has been found!

----- Orbital basis set information -----
Your calculation utilizes the basis: def2-TZVP
   F. Weigend and R. Ahlrichs, Phys. Chem. Chem. Phys. 7, 3297 (2005).

================================================================================
                                        WARNINGS
                       Please study these warnings very carefully!
================================================================================


WARNING: The frozen-core approximation for MP2-gradient calculations is turned on by default.

INFO   : the flag for use of LIBINT has been found!

----- Orbital basis set information -----
Your calculation utilizes the basis: def2-TZVP
   F. Weigend and R. Ahlrichs, Phys. Chem. Chem. Phys. 7, 3297 (2005).

================================================================================
                                        WARNINGS
                       Please study these warnings very carefully!
================================================================================


WARNING: The frozen-core approximation for MP2-gradient calculations is turned on by default.

INFO   : the flag for use of LIBINT has been found!

----- Orbital basis set information -----
Your calculation utilizes the basis: def2-TZVP
   F. Weigend and R. Ahlrichs, Phys. Chem. Chem. Phys. 7, 3297 (2005).

================================================================================
                                        WARNINGS
                       Please study these warnings very carefully!
================================================================================


WARNING: The frozen-core approximation for MP2-gradient calculations is turned on by default.

INFO   : the flag for use of LIBINT has been found!

----- Orbital basis set information -----
Your calculation utilizes the basis: def2-TZVP
   F. Weigend and R. Ahlrichs, Phys. Chem. Chem. Phys. 7, 3297 (2005).

================================================================================
                                        WARNINGS
                       Please study these warnings very carefully!
================================================================================


WARNING: The frozen-core approximation for MP2-gradient calculations is turned on by default.

INFO   : the flag for use of LIBINT has been found!

----- Orbital basis set information -----
Your calculation utilizes the basis: def2-TZVP
   F. Weigend and R. Ahlrichs, Phys. Chem. Chem. Phys. 7, 3297 (2005).

================================================================================
                                        WARNINGS
                       Please study these warnings very carefully!
================================================================================


WARNING: The frozen-core approximation for MP2-gradient calculations is turned on by default.

INFO   : the flag for use of LIBINT has been found!

----- Orbital basis set information -----
Your calculation utilizes the basis: def2-TZVP
   F. Weigend and R. Ahlrichs, Phys. Chem. Chem. Phys. 7, 3297 (2005).

================================================================================
                                        WARNINGS
                       Please study these warnings very carefully!
================================================================================


WARNING: The frozen-core approximation for MP2-gradient calculations is turned on by default.

INFO   : the flag for use of LIBINT has been found!

----- Orbital basis set information -----
Your calculation utilizes the basis: def2-TZVP
   F. Weigend and R. Ahlrichs, Phys. Chem. Chem. Phys. 7, 3297 (2005).

================================================================================
                                        WARNINGS
                       Please study these warnings very carefully!
================================================================================


WARNING: The frozen-core approximation for MP2-gradient calculations is turned on by default.

INFO   : the flag for use of LIBINT has been found!

----- Orbital basis set information -----
Your calculation utilizes the basis: def2-TZVP
   F. Weigend and R. Ahlrichs, Phys. Chem. Chem. Phys. 7, 3297 (2005).

================================================================================
                                        WARNINGS
                       Please study these warnings very carefully!
================================================================================


WARNING: The frozen-core approximation for MP2-gradient calculations is turned on by default.

INFO   : the flag for use of LIBINT has been found!

----- Orbital basis set information -----
Your calculation utilizes the basis: def2-TZVP
   F. Weigend and R. Ahlrichs, Phys. Chem. Chem. Phys. 7, 3297 (2005).

================================================================================
                                        WARNINGS
                       Please study these warnings very carefully!
================================================================================


WARNING: The frozen-core approximation for MP2-gradient calculations is turned on by default.

INFO   : the flag for use of LIBINT has been found!

----- Orbital basis set information -----
Your calculation utilizes the basis: def2-TZVP
   F. Weigend and R. Ahlrichs, Phys. Chem. Chem. Phys. 7, 3297 (2005).

================================================================================
                                        WARNINGS
                       Please study these warnings very carefully!
================================================================================


WARNING: The frozen-core approximation for MP2-gradient calculations is turned on by default.

INFO   : the flag for use of LIBINT has been found!

----- Orbital basis set information -----
Your calculation utilizes the basis: def2-TZVP
   F. Weigend and R. Ahlrichs, Phys. Chem. Chem. Phys. 7, 3297 (2005).

================================================================================
                                        WARNINGS
                       Please study these warnings very carefully!
================================================================================


WARNING: The frozen-core approximation for MP2-gradient calculations is turned on by default.

INFO   : the flag for use of LIBINT has been found!

----- Orbital basis set information -----
Your calculation utilizes the basis: def2-TZVP
   F. Weigend and R. Ahlrichs, Phys. Chem. Chem. Phys. 7, 3297 (2005).

================================================================================
                                        WARNINGS
                       Please study these warnings very carefully!
================================================================================


WARNING: The frozen-core approximation for MP2-gradient calculations is turned on by default.

INFO   : the flag for use of LIBINT has been found!

================================================================================
                                       INPUT FILE
================================================================================
NAME = 6h2o.temelso.etal.dset.1h2o.dset-orca.engrad-mp2.def2tzvp.inp
|  1> # 6h2o.temelso.etal.dset.1h2o.dset-orca.engrad-mp2.def2tzvp
|  2> ! MP2 def2-TZVP EnGrad TightSCF FrozenCore
|  3> 
|  4> %pal
|  5>     nprocs 12
|  6> end
|  7> 
|  8> %maxcore 8000
|  9> 
| 10> %scf
| 11>     ConvForced true
| 12> end
| 13> 
| 14> *xyz 0 1
| 15> O  -0.004671440  -0.047648690   0.050977441
| 16> H   0.185528560  -0.172648690  -0.894822559
| 17> H  -0.111371440   0.929051310   0.085577441
| 18> *
| 19> 
| 20> 
| 21> $new_job
| 22> 
| 23> # 6h2o.temelso.etal.dset.1h2o.dset-orca.engrad-mp2.def2tzvp
| 24> ! MP2 def2-TZVP EnGrad TightSCF FrozenCore
| 25> 
| 26> %pal
| 27>     nprocs 12
| 28> end
| 29> 
| 30> %maxcore 8000
| 31> 
| 32> %scf
| 33>     ConvForced true
| 34> end
| 35> 
| 36> *xyz 0 1
| 37> O  -0.062216870   0.008565239   0.024347434
| 38> H   0.199783130  -0.284334761  -0.866152566
| 39> H   0.787883130   0.148365239   0.479647434
| 40> *
| 41> 
| 42> 
| 43> $new_job
| 44> 
| 45> # 6h2o.temelso.etal.dset.1h2o.dset-orca.engrad-mp2.def2tzvp
| 46> ! MP2 def2-TZVP EnGrad TightSCF FrozenCore
| 47> 
| 48> %pal
| 49>     nprocs 12
| 50> end
| 51> 
| 52> %maxcore 8000
| 53> 
| 54> %scf
| 55>     ConvForced true
| 56> end
| 57> 
| 58> *xyz 0 1
| 59> O  -0.055357965   0.008688319   0.035167273
| 60> H   0.006842035  -0.078511681  -0.923632727
| 61> H   0.871942035  -0.059411681   0.365367273
| 62> *
| 63> 
| 64> 
| 65> $new_job
| 66> 
| 67> # 6h2o.temelso.etal.dset.1h2o.dset-orca.engrad-mp2.def2tzvp
| 68> ! MP2 def2-TZVP EnGrad TightSCF FrozenCore
| 69> 
| 70> %pal
| 71>     nprocs 12
| 72> end
| 73> 
| 74> %maxcore 8000
| 75> 
| 76> %scf
| 77>     ConvForced true
| 78> end
| 79> 
| 80> *xyz 0 1
| 81> O   0.006226722  -0.015670304  -0.066759635
| 82> H   0.116226722   0.843029696   0.373540365
| 83> H  -0.215073278  -0.594270304   0.686240365
| 84> *
| 85> 
| 86> 
| 87> $new_job
| 88> 
| 89> # 6h2o.temelso.etal.dset.1h2o.dset-orca.engrad-mp2.def2tzvp
| 90> ! MP2 def2-TZVP EnGrad TightSCF FrozenCore
| 91> 
| 92> %pal
| 93>     nprocs 12
| 94> end
| 95> 
| 96> %maxcore 8000
| 97> 
| 98> %scf
| 99>     ConvForced true
|100> end
|101> 
|102> *xyz 0 1
|103> O   0.049461320   0.040745028  -0.016554241
|104> H  -0.872838680  -0.000854972  -0.397154241
|105> H   0.087661320  -0.645954972   0.659945759
|106> *
|107> 
|108> 
|109> $new_job
|110> 
|111> # 6h2o.temelso.etal.dset.1h2o.dset-orca.engrad-mp2.def2tzvp
|112> ! MP2 def2-TZVP EnGrad TightSCF FrozenCore
|113> 
|114> %pal
|115>     nprocs 12
|116> end
|117> 
|118> %maxcore 8000
|119> 
|120> %scf
|121>     ConvForced true
|122> end
|123> 
|124> *xyz 0 1
|125> O  -0.009549878   0.020817280  -0.061607065
|126> H   0.299050122   0.551817280   0.682792935
|127> H  -0.147449878  -0.882282720   0.295192935
|128> *
|129> 
|130> 
|131> $new_job
|132> 
|133> # 6h2o.temelso.etal.dset.1h2o.dset-orca.engrad-mp2.def2tzvp
|134> ! MP2 def2-TZVP EnGrad TightSCF FrozenCore
|135> 
|136> %pal
|137>     nprocs 12
|138> end
|139> 
|140> %maxcore 8000
|141> 
|142> %scf
|143>     ConvForced true
|144> end
|145> 
|146> *xyz 0 1
|147> O  -0.061081178   0.014215724   0.020302583
|148> H   0.791018822   0.374815724   0.361302583
|149> H   0.178618822  -0.600484276  -0.683597417
|150> *
|151> 
|152> 
|153> $new_job
|154> 
|155> # 6h2o.temelso.etal.dset.1h2o.dset-orca.engrad-mp2.def2tzvp
|156> ! MP2 def2-TZVP EnGrad TightSCF FrozenCore
|157> 
|158> %pal
|159>     nprocs 12
|160> end
|161> 
|162> %maxcore 8000
|163> 
|164> %scf
|165>     ConvForced true
|166> end
|167> 
|168> *xyz 0 1
|169> O   0.022624316   0.063867259   0.000251754
|170> H   0.471424316  -0.731632741  -0.339248246
|171> H  -0.830575684  -0.282232741   0.335251754
|172> *
|173> 
|174> 
|175> $new_job
|176> 
|177> # 6h2o.temelso.etal.dset.1h2o.dset-orca.engrad-mp2.def2tzvp
|178> ! MP2 def2-TZVP EnGrad TightSCF FrozenCore
|179> 
|180> %pal
|181>     nprocs 12
|182> end
|183> 
|184> %maxcore 8000
|185> 
|186> %scf
|187>     ConvForced true
|188> end
|189> 
|190> *xyz 0 1
|191> O   0.036342126  -0.051620813   0.020196286
|192> H  -0.547457874   0.017279187  -0.785403714
|193> H  -0.029457874   0.802179187   0.464796286
|194> *
|195> 
|196> 
|197> $new_job
|198> 
|199> # 6h2o.temelso.etal.dset.1h2o.dset-orca.engrad-mp2.def2tzvp
|200> ! MP2 def2-TZVP EnGrad TightSCF FrozenCore
|201> 
|202> %pal
|203>     nprocs 12
|204> end
|205> 
|206> %maxcore 8000
|207> 
|208> %scf
|209>     ConvForced true
|210> end
|211> 
|212> *xyz 0 1
|213> O  -0.049108864  -0.034115500   0.032795188
|214> H   0.394591136  -0.258715500  -0.805404812
|215> H   0.384991136   0.800284500   0.284795188
|216> *
|217> 
|218> 
|219> $new_job
|220> 
|221> # 6h2o.temelso.etal.dset.1h2o.dset-orca.engrad-mp2.def2tzvp
|222> ! MP2 def2-TZVP EnGrad TightSCF FrozenCore
|223> 
|224> %pal
|225>     nprocs 12
|226> end
|227> 
|228> %maxcore 8000
|229> 
|230> %scf
|231>     ConvForced true
|232> end
|233> 
|234> *xyz 0 1
|235> O   0.003753936  -0.008291107  -0.065707862
|236> H  -0.615346064   0.563708893   0.439792138
|237> H   0.555753936  -0.432091107   0.603292138
|238> *
|239> 
|240> 
|241> $new_job
|242> 
|243> # 6h2o.temelso.etal.dset.1h2o.dset-orca.engrad-mp2.def2tzvp
|244> ! MP2 def2-TZVP EnGrad TightSCF FrozenCore
|245> 
|246> %pal
|247>     nprocs 12
|248> end
|249> 
|250> %maxcore 8000
|251> 
|252> %scf
|253>     ConvForced true
|254> end
|255> 
|256> *xyz 0 1
|257> O   0.004766547   0.064107824  -0.013975159
|258> H   0.682266547  -0.515792176   0.401824841
|259> H  -0.757933453  -0.501892176  -0.179975159
|260> *
|261> 
|262> 
|263> $new_job
|264> 
|265> # 6h2o.temelso.etal.dset.1h2o.dset-orca.engrad-mp2.def2tzvp
|266> ! MP2 def2-TZVP EnGrad TightSCF FrozenCore
|267> 
|268> %pal
|269>     nprocs 12
|270> end
|271> 
|272> %maxcore 8000
|273> 
|274> %scf
|275>     ConvForced true
|276> end
|277> 
|278> *xyz 0 1
|279> O  -0.013035276   0.038647076   0.052588668
|280> H  -0.655335276  -0.466152924  -0.460611332
|281> H   0.862264724  -0.147352924  -0.374211332
|282> *
|283> 
|284> 
|285> $new_job
|286> 
|287> # 6h2o.temelso.etal.dset.1h2o.dset-orca.engrad-mp2.def2tzvp
|288> ! MP2 def2-TZVP EnGrad TightSCF FrozenCore
|289> 
|290> %pal
|291>     nprocs 12
|292> end
|293> 
|294> %maxcore 8000
|295> 
|296> %scf
|297>     ConvForced true
|298> end
|299> 
|300> *xyz 0 1
|301> O  -0.052543912  -0.038289026  -0.019066189
|302> H   0.730856088  -0.295689026   0.511233811
|303> H   0.103256088   0.903510974  -0.208566189
|304> *
|305> 
|306> 
|307> $new_job
|308> 
|309> # 6h2o.temelso.etal.dset.1h2o.dset-orca.engrad-mp2.def2tzvp
|310> ! MP2 def2-TZVP EnGrad TightSCF FrozenCore
|311> 
|312> %pal
|313>     nprocs 12
|314> end
|315> 
|316> %maxcore 8000
|317> 
|318> %scf
|319>     ConvForced true
|320> end
|321> 
|322> *xyz 0 1
|323> O  -0.055676853  -0.032370003   0.016101084
|324> H   0.752523147  -0.414170003  -0.347398916
|325> H   0.131323147   0.928029997   0.091801084
|326> *
|327> 
|328> 
|329> $new_job
|330> 
|331> # 6h2o.temelso.etal.dset.1h2o.dset-orca.engrad-mp2.def2tzvp
|332> ! MP2 def2-TZVP EnGrad TightSCF FrozenCore
|333> 
|334> %pal
|335>     nprocs 12
|336> end
|337> 
|338> %maxcore 8000
|339> 
|340> %scf
|341>     ConvForced true
|342> end
|343> 
|344> *xyz 0 1
|345> O   0.044549315  -0.045466820  -0.017992038
|346> H  -0.758950685   0.237933180  -0.502892038
|347> H   0.051749315   0.483833180   0.788507962
|348> *
|349> 
|350> 
|351> $new_job
|352> 
|353> # 6h2o.temelso.etal.dset.1h2o.dset-orca.engrad-mp2.def2tzvp
|354> ! MP2 def2-TZVP EnGrad TightSCF FrozenCore
|355> 
|356> %pal
|357>     nprocs 12
|358> end
|359> 
|360> %maxcore 8000
|361> 
|362> %scf
|363>     ConvForced true
|364> end
|365> 
|366> *xyz 0 1
|367> O   0.019379484   0.036974309  -0.051894945
|368> H  -0.164620516  -0.935325691  -0.022994945
|369> H  -0.143020516   0.348374309   0.846805055
|370> *
|371> 
|372> 
|373> $new_job
|374> 
|375> # 6h2o.temelso.etal.dset.1h2o.dset-orca.engrad-mp2.def2tzvp
|376> ! MP2 def2-TZVP EnGrad TightSCF FrozenCore
|377> 
|378> %pal
|379>     nprocs 12
|380> end
|381> 
|382> %maxcore 8000
|383> 
|384> %scf
|385>     ConvForced true
|386> end
|387> 
|388> *xyz 0 1
|389> O   0.051094926  -0.038798129   0.016610187
|390> H   0.020694926   0.578901871  -0.724289813
|391> H  -0.831805074   0.037001871   0.460610187
|392> *
|393> 
|394> 
|395> $new_job
|396> 
|397> # 6h2o.temelso.etal.dset.1h2o.dset-orca.engrad-mp2.def2tzvp
|398> ! MP2 def2-TZVP EnGrad TightSCF FrozenCore
|399> 
|400> %pal
|401>     nprocs 12
|402> end
|403> 
|404> %maxcore 8000
|405> 
|406> %scf
|407>     ConvForced true
|408> end
|409> 
|410> *xyz 0 1
|411> O  -0.055067049   0.037516979   0.002920349
|412> H   0.836032951   0.302916979   0.261120349
|413> H   0.038132951  -0.898483021  -0.307479651
|414> *
|415> 
|416> 
|417> $new_job
|418> 
|419> # 6h2o.temelso.etal.dset.1h2o.dset-orca.engrad-mp2.def2tzvp
|420> ! MP2 def2-TZVP EnGrad TightSCF FrozenCore
|421> 
|422> %pal
|423>     nprocs 12
|424> end
|425> 
|426> %maxcore 8000
|427> 
|428> %scf
|429>     ConvForced true
|430> end
|431> 
|432> *xyz 0 1
|433> O   0.053472605   0.034697332   0.019368294
|434> H  -0.126427395  -0.292602668  -0.870331706
|435> H  -0.722427395  -0.258202668   0.562868294
|436> *
|437> 
|438> 
|439> $new_job
|440> 
|441> # 6h2o.temelso.etal.dset.1h2o.dset-orca.engrad-mp2.def2tzvp
|442> ! MP2 def2-TZVP EnGrad TightSCF FrozenCore
|443> 
|444> %pal
|445>     nprocs 12
|446> end
|447> 
|448> %maxcore 8000
|449> 
|450> %scf
|451>     ConvForced true
|452> end
|453> 
|454> *xyz 0 1
|455> O   0.050988630  -0.044677989   0.003177698
|456> H  -0.017011370   0.821322011   0.441977698
|457> H  -0.792411370  -0.112077989  -0.492422302
|458> *
|459> 
|460> 
|461> $new_job
|462> 
|463> # 6h2o.temelso.etal.dset.1h2o.dset-orca.engrad-mp2.def2tzvp
|464> ! MP2 def2-TZVP EnGrad TightSCF FrozenCore
|465> 
|466> %pal
|467>     nprocs 12
|468> end
|469> 
|470> %maxcore 8000
|471> 
|472> %scf
|473>     ConvForced true
|474> end
|475> 
|476> *xyz 0 1
|477> O   0.052756504  -0.033500100  -0.022473264
|478> H  -0.789643496  -0.405400100   0.266126736
|479> H  -0.047843496   0.937199900   0.090626736
|480> *
|481> 
|482> 
|483> $new_job
|484> 
|485> # 6h2o.temelso.etal.dset.1h2o.dset-orca.engrad-mp2.def2tzvp
|486> ! MP2 def2-TZVP EnGrad TightSCF FrozenCore
|487> 
|488> %pal
|489>     nprocs 12
|490> end
|491> 
|492> %maxcore 8000
|493> 
|494> %scf
|495>     ConvForced true
|496> end
|497> 
|498> *xyz 0 1
|499> O  -0.051223600  -0.041377211   0.008492510
|500> H   0.067876400   0.596422789  -0.706107490
|501> H   0.745276400   0.060422789   0.571292510
|502> *
|503> 
|504> 
|505> $new_job
|506> 
|507> # 6h2o.temelso.etal.dset.1h2o.dset-orca.engrad-mp2.def2tzvp
|508> ! MP2 def2-TZVP EnGrad TightSCF FrozenCore
|509> 
|510> %pal
|511>     nprocs 12
|512> end
|513> 
|514> %maxcore 8000
|515> 
|516> %scf
|517>     ConvForced true
|518> end
|519> 
|520> *xyz 0 1
|521> O  -0.050859955  -0.037466629  -0.018769679
|522> H   0.026340045   0.436933371   0.817830321
|523> H   0.781040045   0.157833371  -0.519869679
|524> *
|525> 
|526> 
|527> $new_job
|528> 
|529> # 6h2o.temelso.etal.dset.1h2o.dset-orca.engrad-mp2.def2tzvp
|530> ! MP2 def2-TZVP EnGrad TightSCF FrozenCore
|531> 
|532> %pal
|533>     nprocs 12
|534> end
|535> 
|536> %maxcore 8000
|537> 
|538> %scf
|539>     ConvForced true
|540> end
|541> 
|542> *xyz 0 1
|543> O   0.049399781  -0.000872748  -0.044868204
|544> H   0.042299781   0.466627252   0.798931796
|545> H  -0.826500219  -0.452772748  -0.086668204
|546> *
|547> 
|548> 
|549> $new_job
|550> 
|551> # 6h2o.temelso.etal.dset.1h2o.dset-orca.engrad-mp2.def2tzvp
|552> ! MP2 def2-TZVP EnGrad TightSCF FrozenCore
|553> 
|554> %pal
|555>     nprocs 12
|556> end
|557> 
|558> %maxcore 8000
|559> 
|560> %scf
|561>     ConvForced true
|562> end
|563> 
|564> *xyz 0 1
|565> O  -0.028078992   0.052163483  -0.030618913
|566> H   0.778121008  -0.452236517  -0.292518913
|567> H  -0.332378992  -0.375836517   0.778581087
|568> *
|569> 
|570> 
|571> $new_job
|572> 
|573> # 6h2o.temelso.etal.dset.1h2o.dset-orca.engrad-mp2.def2tzvp
|574> ! MP2 def2-TZVP EnGrad TightSCF FrozenCore
|575> 
|576> %pal
|577>     nprocs 12
|578> end
|579> 
|580> %maxcore 8000
|581> 
|582> %scf
|583>     ConvForced true
|584> end
|585> 
|586> *xyz 0 1
|587> O   0.027995074  -0.052180266   0.030630102
|588> H   0.332195074   0.374019734  -0.779569898
|589> H  -0.776604926   0.454319734   0.293330102
|590> *
|591> 
|592> 
|593> $new_job
|594> 
|595> # 6h2o.temelso.etal.dset.1h2o.dset-orca.engrad-mp2.def2tzvp
|596> ! MP2 def2-TZVP EnGrad TightSCF FrozenCore
|597> 
|598> %pal
|599>     nprocs 12
|600> end
|601> 
|602> %maxcore 8000
|603> 
|604> %scf
|605>     ConvForced true
|606> end
|607> 
|608> *xyz 0 1
|609> O  -0.049388591   0.000867154   0.044868204
|610> H   0.827211409   0.451267154   0.087568204
|611> H  -0.043188591  -0.465032846  -0.799831796
|612> *
|613> 
|614> 
|615> $new_job
|616> 
|617> # 6h2o.temelso.etal.dset.1h2o.dset-orca.engrad-mp2.def2tzvp
|618> ! MP2 def2-TZVP EnGrad TightSCF FrozenCore
|619> 
|620> %pal
|621>     nprocs 12
|622> end
|623> 
|624> %maxcore 8000
|625> 
|626> %scf
|627>     ConvForced true
|628> end
|629> 
|630> *xyz 0 1
|631> O  -0.035793861  -0.041522669  -0.037925381
|632> H   0.575906139  -0.285122669   0.667074619
|633> H  -0.007693861   0.944277331  -0.065025381
|634> *
|635> 
|636> 
|637> $new_job
|638> 
|639> # 6h2o.temelso.etal.dset.1h2o.dset-orca.engrad-mp2.def2tzvp
|640> ! MP2 def2-TZVP EnGrad TightSCF FrozenCore
|641> 
|642> %pal
|643>     nprocs 12
|644> end
|645> 
|646> %maxcore 8000
|647> 
|648> %scf
|649>     ConvForced true
|650> end
|651> 
|652> *xyz 0 1
|653> O   0.035721132   0.041600993   0.037947759
|654> H  -0.574478868   0.283700993  -0.668852241
|655> H   0.007421132  -0.944099007   0.066447759
|656> *
|657> 
|658> 
|659> $new_job
|660> 
|661> # 6h2o.temelso.etal.dset.1h2o.dset-orca.engrad-mp2.def2tzvp
|662> ! MP2 def2-TZVP EnGrad TightSCF FrozenCore
|663> 
|664> %pal
|665>     nprocs 12
|666> end
|667> 
|668> %maxcore 8000
|669> 
|670> %scf
|671>     ConvForced true
|672> end
|673> 
|674> *xyz 0 1
|675> O  -0.034305714  -0.049785804   0.028705580
|676> H   0.847294286  -0.085785804  -0.435794420
|677> H  -0.302705714   0.876114196  -0.019894420
|678> *
|679> 
|680> 
|681> $new_job
|682> 
|683> # 6h2o.temelso.etal.dset.1h2o.dset-orca.engrad-mp2.def2tzvp
|684> ! MP2 def2-TZVP EnGrad TightSCF FrozenCore
|685> 
|686> %pal
|687>     nprocs 12
|688> end
|689> 
|690> %maxcore 8000
|691> 
|692> %scf
|693>     ConvForced true
|694> end
|695> 
|696> *xyz 0 1
|697> O   0.040644327  -0.049774615  -0.023111041
|698> H   0.121744327   0.471625385   0.798388959
|699> H  -0.766955673   0.318525385  -0.431511041
|700> *
|701> 
|702> 
|703> $new_job
|704> 
|705> # 6h2o.temelso.etal.dset.1h2o.dset-orca.engrad-mp2.def2tzvp
|706> ! MP2 def2-TZVP EnGrad TightSCF FrozenCore
|707> 
|708> %pal
|709>     nprocs 12
|710> end
|711> 
|712> %maxcore 8000
|713> 
|714> %scf
|715>     ConvForced true
|716> end
|717> 
|718> *xyz 0 1
|719> O  -0.050423581   0.040840136  -0.018059172
|720> H   0.730276419   0.276040136   0.499240828
|721> H   0.070176419  -0.924359864  -0.212559172
|722> *
|723> 
|724> 
|725> $new_job
|726> 
|727> # 6h2o.temelso.etal.dset.1h2o.dset-orca.engrad-mp2.def2tzvp
|728> ! MP2 def2-TZVP EnGrad TightSCF FrozenCore
|729> 
|730> %pal
|731>     nprocs 12
|732> end
|733> 
|734> %maxcore 8000
|735> 
|736> %scf
|737>     ConvForced true
|738> end
|739> 
|740> *xyz 0 1
|741> O   0.044985689   0.046462647   0.015301065
|742> H  -0.050114311  -0.398237353  -0.835398935
|743> H  -0.664014311  -0.339337353   0.592501065
|744> *
|745> 
|746> 
|747> $new_job
|748> 
|749> # 6h2o.temelso.etal.dset.1h2o.dset-orca.engrad-mp2.def2tzvp
|750> ! MP2 def2-TZVP EnGrad TightSCF FrozenCore
|751> 
|752> %pal
|753>     nprocs 12
|754> end
|755> 
|756> %maxcore 8000
|757> 
|758> %scf
|759>     ConvForced true
|760> end
|761> 
|762> *xyz 0 1
|763> O   0.047676662  -0.043055573  -0.014775178
|764> H  -0.450723338   0.008144427   0.809624822
|765> H  -0.306123338   0.675344427  -0.575075178
|766> *
|767> 
|768> 
|769> $new_job
|770> 
|771> # 6h2o.temelso.etal.dset.1h2o.dset-orca.engrad-mp2.def2tzvp
|772> ! MP2 def2-TZVP EnGrad TightSCF FrozenCore
|773> 
|774> %pal
|775>     nprocs 12
|776> end
|777> 
|778> %maxcore 8000
|779> 
|780> %scf
|781>     ConvForced true
|782> end
|783> 
|784> *xyz 0 1
|785> O   0.033690315  -0.048499060  -0.029337763
|786> H   0.378690315   0.800700940   0.313162237
|787> H  -0.913509685  -0.030799060   0.152562237
|788> *
|789> 
|790> 
|791> $new_job
|792> 
|793> # 6h2o.temelso.etal.dset.1h2o.dset-orca.engrad-mp2.def2tzvp
|794> ! MP2 def2-TZVP EnGrad TightSCF FrozenCore
|795> 
|796> %pal
|797>     nprocs 12
|798> end
|799> 
|800> %maxcore 8000
|801> 
|802> %scf
|803>     ConvForced true
|804> end
|805> 
|806> *xyz 0 1
|807> O  -0.061170691   0.024946050   0.006355396
|808> H   0.183429309  -0.907753950   0.018855396
|809> H   0.787629309   0.511746050  -0.119744604
|810> *
|811> 
|812> 
|813> $new_job
|814> 
|815> # 6h2o.temelso.etal.dset.1h2o.dset-orca.engrad-mp2.def2tzvp
|816> ! MP2 def2-TZVP EnGrad TightSCF FrozenCore
|817> 
|818> %pal
|819>     nprocs 12
|820> end
|821> 
|822> %maxcore 8000
|823> 
|824> %scf
|825>     ConvForced true
|826> end
|827> 
|828> *xyz 0 1
|829> O  -0.021287221  -0.062463029  -0.010696759
|830> H  -0.102287221   0.724436971  -0.600096759
|831> H   0.440212779   0.267136971   0.769903241
|832> *
|833> 
|834> 
|835> $new_job
|836> 
|837> # 6h2o.temelso.etal.dset.1h2o.dset-orca.engrad-mp2.def2tzvp
|838> ! MP2 def2-TZVP EnGrad TightSCF FrozenCore
|839> 
|840> %pal
|841>     nprocs 12
|842> end
|843> 
|844> %maxcore 8000
|845> 
|846> %scf
|847>     ConvForced true
|848> end
|849> 
|850> *xyz 0 1
|851> O   0.042294716  -0.021762757   0.046250055
|852> H  -0.767005284   0.527337243   0.169150055
|853> H   0.095594716  -0.181862757  -0.903349945
|854> *
|855> 
|856> 
|857> $new_job
|858> 
|859> # 6h2o.temelso.etal.dset.1h2o.dset-orca.engrad-mp2.def2tzvp
|860> ! MP2 def2-TZVP EnGrad TightSCF FrozenCore
|861> 
|862> %pal
|863>     nprocs 12
|864> end
|865> 
|866> %maxcore 8000
|867> 
|868> %scf
|869>     ConvForced true
|870> end
|871> 
|872> *xyz 0 1
|873> O  -0.042686334   0.043217815   0.026769870
|874> H  -0.090686334  -0.341882185  -0.856230130
|875> H   0.768313666  -0.344182185   0.431269870
|876> *
|877> 
|878> 
|879> $new_job
|880> 
|881> # 6h2o.temelso.etal.dset.1h2o.dset-orca.engrad-mp2.def2tzvp
|882> ! MP2 def2-TZVP EnGrad TightSCF FrozenCore
|883> 
|884> %pal
|885>     nprocs 12
|886> end
|887> 
|888> %maxcore 8000
|889> 
|890> %scf
|891>     ConvForced true
|892> end
|893> 
|894> *xyz 0 1
|895> O   0.061495174  -0.016912292   0.018461979
|896> H  -0.192704826   0.762387708  -0.489538021
|897> H  -0.783504826  -0.493912292   0.196461979
|898> *
|899> 
|900> 
|901> $new_job
|902> 
|903> # 6h2o.temelso.etal.dset.1h2o.dset-orca.engrad-mp2.def2tzvp
|904> ! MP2 def2-TZVP EnGrad TightSCF FrozenCore
|905> 
|906> %pal
|907>     nprocs 12
|908> end
|909> 
|910> %maxcore 8000
|911> 
|912> %scf
|913>     ConvForced true
|914> end
|915> 
|916> *xyz 0 1
|917> O   0.020867631   0.046373135  -0.043346489
|918> H   0.092467631  -0.935026865  -0.111146489
|919> H  -0.423732369   0.198873135   0.799253511
|920> *
|921> 
|922> 
|923> $new_job
|924> 
|925> # 6h2o.temelso.etal.dset.1h2o.dset-orca.engrad-mp2.def2tzvp
|926> ! MP2 def2-TZVP EnGrad TightSCF FrozenCore
|927> 
|928> %pal
|929>     nprocs 12
|930> end
|931> 
|932> %maxcore 8000
|933> 
|934> %scf
|935>     ConvForced true
|936> end
|937> 
|938> *xyz 0 1
|939> O   0.007586195   0.046831887  -0.046792725
|940> H  -0.106613805   0.188431887   0.900907275
|941> H  -0.013813805  -0.931868113  -0.158092725
|942> *
|943> 
|944> 
|945> $new_job
|946> 
|947> # 6h2o.temelso.etal.dset.1h2o.dset-orca.engrad-mp2.def2tzvp
|948> ! MP2 def2-TZVP EnGrad TightSCF FrozenCore
|949> 
|950> %pal
|951>     nprocs 12
|952> end
|953> 
|954> %maxcore 8000
|955> 
|956> %scf
|957>     ConvForced true
|958> end
|959> 
|960> *xyz 0 1
|961> O   0.002998673   0.052935529   0.039659688
|962> H   0.718098673  -0.331064471  -0.519640312
|963> H  -0.765701327  -0.509264471  -0.109940312
|964> *
|965> 
|966> 
|967> $new_job
|968> 
|969> # 6h2o.temelso.etal.dset.1h2o.dset-orca.engrad-mp2.def2tzvp
|970> ! MP2 def2-TZVP EnGrad TightSCF FrozenCore
|971> 
|972> %pal
|973>     nprocs 12
|974> end
|975> 
|976> %maxcore 8000
|977> 
|978> %scf
|979>     ConvForced true
|980> end
|981> 
|982> *xyz 0 1
|983> O  -0.050876739  -0.020324961   0.038238675
|984> H   0.845923261   0.282775039   0.317338675
|985> H  -0.038276739   0.039875039  -0.924361325
|986> *
|987> 
|988> 
|989> $new_job
|990> 
|991> # 6h2o.temelso.etal.dset.1h2o.dset-orca.engrad-mp2.def2tzvp
|992> ! MP2 def2-TZVP EnGrad TightSCF FrozenCore
|993> 
|994> %pal
|995>     nprocs 12
|996> end
|997> 
|998> %maxcore 8000
|999> 
|1000> %scf
|1001>     ConvForced true
|1002> end
|1003> 
|1004> *xyz 0 1
|1005> O   0.059436384   0.009555473   0.028733553
|1006> H  -0.192163616   0.247855473  -0.871466447
|1007> H  -0.751363616  -0.399544527   0.415333553
|1008> *
|1009> 
|1010> 
|1011> $new_job
|1012> 
|1013> # 6h2o.temelso.etal.dset.1h2o.dset-orca.engrad-mp2.def2tzvp
|1014> ! MP2 def2-TZVP EnGrad TightSCF FrozenCore
|1015> 
|1016> %pal
|1017>     nprocs 12
|1018> end
|1019> 
|1020> %maxcore 8000
|1021> 
|1022> %scf
|1023>     ConvForced true
|1024> end
|1025> 
|1026> *xyz 0 1
|1027> O  -0.021320789  -0.030993747  -0.055044670
|1028> H   0.335979211  -0.443893747   0.740555330
|1029> H   0.002479211   0.935906253   0.133255330
|1030> *
|1031> 
|1032> 
|1033> $new_job
|1034> 
|1035> # 6h2o.temelso.etal.dset.1h2o.dset-orca.engrad-mp2.def2tzvp
|1036> ! MP2 def2-TZVP EnGrad TightSCF FrozenCore
|1037> 
|1038> %pal
|1039>     nprocs 12
|1040> end
|1041> 
|1042> %maxcore 8000
|1043> 
|1044> %scf
|1045>     ConvForced true
|1046> end
|1047> 
|1048> *xyz 0 1
|1049> O   0.004979140  -0.062356733   0.021813108
|1050> H  -0.811720860   0.441743267  -0.203186892
|1051> H   0.732679140   0.548143267  -0.143086892
|1052> *
|1053> 
|1054>                          ****END OF INPUT****
================================================================================


                 $$$$$$$$$$$$$$$$$$$$$$$$$$$$$$$$$$$$$$$$$$$$$$ 
                 $ THERE ARE 48 JOBS TO BE PROCESSED THIS RUN $
                 $$$$$$$$$$$$$$$$$$$$$$$$$$$$$$$$$$$$$$$$$$$$$$ 




                 $$$$$$$$$$$$$$$$  JOB NUMBER  1 $$$$$$$$$$$$$$


                     *******************************
                     * Energy+Gradient Calculation *
                     *******************************

---------------------------------
CARTESIAN COORDINATES (ANGSTROEM)
---------------------------------
  O     -0.004671   -0.047649    0.050977
  H      0.185529   -0.172649   -0.894823
  H     -0.111371    0.929051    0.085577

----------------------------
CARTESIAN COORDINATES (A.U.)
----------------------------
  NO LB      ZA    FRAG     MASS         X           Y           Z
   0 O     8.0000    0    15.999   -0.008828   -0.090043    0.096333
   1 H     1.0000    0     1.008    0.350598   -0.326259   -1.690970
   2 H     1.0000    0     1.008   -0.210462    1.755653    0.161718

--------------------------------
INTERNAL COORDINATES (ANGSTROEM)
--------------------------------
 O      0   0   0     0.000000000000     0.00000000     0.00000000
 H      1   0   0     0.972799403783     0.00000000     0.00000000
 H      1   2   0     0.983120002848   100.54998879     0.00000000

---------------------------
INTERNAL COORDINATES (A.U.)
---------------------------
 O      0   0   0     0.000000000000     0.00000000     0.00000000
 H      1   0   0     1.838324456391     0.00000000     0.00000000
 H      1   2   0     1.857827562163   100.54998879     0.00000000

---------------------
BASIS SET INFORMATION
---------------------
There are 2 groups of distinct atoms

 Group   1 Type O   : 11s6p2d1f contracted to 5s3p2d1f pattern {62111/411/11/1}
 Group   2 Type H   : 5s1p contracted to 3s1p pattern {311/1}

Atom   0O    basis set group =>   1
Atom   1H    basis set group =>   2
Atom   2H    basis set group =>   2


           ************************************************************
           *        Program running with 12 parallel MPI-processes    *
           *              working on a common directory               *
           ************************************************************
------------------------------------------------------------------------------
                           ORCA GTO INTEGRAL CALCULATION
------------------------------------------------------------------------------

                         BASIS SET STATISTICS AND STARTUP INFO

 # of primitive gaussian shells          ...   32
 # of primitive gaussian functions       ...   62
 # of contracted shells                  ...   19
 # of contracted basis functions         ...   43
 Highest angular momentum                ...    3
 Maximum contraction depth               ...    6
 Integral package used                   ... LIBINT
 Integral threshhold            Thresh   ...  2.500e-11
 Primitive cut-off              TCut     ...  2.500e-12


------------------------------ INTEGRAL EVALUATION ----------------------------


 * One electron integrals 
 Pre-screening matrix                    ... done
 Shell pair data                         ... done (   0.000 sec)



           ************************************************************
           *        Program running with 12 parallel MPI-processes    *
           *              working on a common directory               *
           ************************************************************
-------------------------------------------------------------------------------
                                 ORCA SCF
-------------------------------------------------------------------------------

------------
SCF SETTINGS
------------
Hamiltonian:
 Ab initio Hamiltonian  Method          .... Hartree-Fock(GTOs)


General Settings:
 Integral files         IntName         .... 6h2o.temelso.etal.dset.1h2o.dset-orca.engrad-mp2.def2tzvp
 Hartree-Fock type      HFTyp           .... RHF
 Total Charge           Charge          ....    0
 Multiplicity           Mult            ....    1
 Number of Electrons    NEL             ....   10
 Basis Dimension        Dim             ....   43
 Nuclear Repulsion      ENuc            ....      9.0096577077 Eh

Convergence Acceleration:
 DIIS                   CNVDIIS         .... on
   Start iteration      DIISMaxIt       ....    12
   Startup error        DIISStart       ....  0.200000
   # of expansion vecs  DIISMaxEq       ....     5
   Bias factor          DIISBfac        ....   1.050
   Max. coefficient     DIISMaxC        ....  10.000
 Newton-Raphson         CNVNR           .... off
 SOSCF                  CNVSOSCF        .... on
   Start iteration      SOSCFMaxIt      ....   150
   Startup grad/error   SOSCFStart      ....  0.003300
 Level Shifting         CNVShift        .... on
   Level shift para.    LevelShift      ....    0.2500
   Turn off err/grad.   ShiftErr        ....    0.0010
 Zerner damping         CNVZerner       .... off
 Static damping         CNVDamp         .... on
   Fraction old density DampFac         ....    0.7000
   Max. Damping (<1)    DampMax         ....    0.9800
   Min. Damping (>=0)   DampMin         ....    0.0000
   Turn off err/grad.   DampErr         ....    0.1000
 Fernandez-Rico         CNVRico         .... off

SCF Procedure:
 Maximum # iterations   MaxIter         ....   125
 SCF integral mode      SCFMode         .... Direct
   Integral package                     .... LIBINT
 Reset frequency        DirectResetFreq ....    20
 Integral Threshold     Thresh          ....  2.500e-11 Eh
 Primitive CutOff       TCut            ....  2.500e-12 Eh

Convergence Tolerance:
 Convergence Check Mode ConvCheckMode   .... Total+1el-Energy
 Convergence forced     ConvForced      .... 1
 Energy Change          TolE            ....  1.000e-08 Eh
 1-El. energy change                    ....  1.000e-05 Eh
 Orbital Gradient       TolG            ....  1.000e-05
 Orbital Rotation angle TolX            ....  1.000e-05
 DIIS Error             TolErr          ....  5.000e-07


Diagonalization of the overlap matrix:
Smallest eigenvalue                        ... 9.034e-03
Time for diagonalization                   ...    0.001 sec
Threshold for overlap eigenvalues          ... 1.000e-08
Number of eigenvalues below threshold      ... 0
Time for construction of square roots      ...    0.000 sec
Total time needed                          ...    0.001 sec

-------------------
DFT GRID GENERATION
-------------------

General Integration Accuracy     IntAcc      ...  4.340
Radial Grid Type                 RadialGrid  ... Gauss-Chebyshev
Angular Grid (max. acc.)         AngularGrid ... Lebedev-110
Angular grid pruning method      GridPruning ... 3 (G Style)
Weight generation scheme         WeightScheme... Becke
Basis function cutoff            BFCut       ...    1.0000e-11
Integration weight cutoff        WCut        ...    1.0000e-14
Grids for H and He will be reduced by one unit

# of grid points (after initial pruning)     ...   3304 (   0.0 sec)
# of grid points (after weights+screening)   ...   3272 (   0.0 sec)
nearest neighbour list constructed           ...    0.0 sec
Grid point re-assignment to atoms done       ...    0.0 sec
Grid point division into batches done        ...    0.0 sec
Reduced shell lists constructed in    0.0 sec

Total number of grid points                  ...     3272
Total number of batches                      ...       53
Average number of points per batch           ...       61
Average number of grid points per atom       ...     1091
Average number of shells per batch           ...    14.00 (73.68%)
Average number of basis functions per batch  ...    33.33 (77.52%)
Average number of large shells per batch     ...    12.17 (86.90%)
Average number of large basis fcns per batch ...    28.83 (86.50%)
Maximum spatial batch extension              ...  20.44, 16.41, 14.48 au
Average spatial batch extension              ...   1.16,  0.97,  0.86 au

Time for grid setup =    0.005 sec

------------------------------
INITIAL GUESS: MODEL POTENTIAL
------------------------------
Loading Hartree-Fock densities                     ... done
Calculating cut-offs                               ... done
Setting up the integral package                    ... done
Initializing the effective Hamiltonian             ... done
Starting the Coulomb interaction                   ... done (   0.0 sec)
Reading the grid                                   ... done
Mapping shells                                     ... done
Starting the XC term evaluation                    ... done (   0.0 sec)
Transforming the Hamiltonian                       ... done (   0.0 sec)
Diagonalizing the Hamiltonian                      ... done (   0.0 sec)
Back transforming the eigenvectors                 ... done (   0.0 sec)
Now organizing SCF variables                       ... done
                      ------------------
                      INITIAL GUESS DONE (   0.1 sec)
                      ------------------
--------------
SCF ITERATIONS
--------------
ITER       Energy         Delta-E        Max-DP      RMS-DP      [F,P]     Damp
               ***  Starting incremental Fock matrix formation  ***
  0    -75.9548548705   0.000000000000 0.04278180  0.00246686  0.3434254 0.7000
  1    -75.9953805766  -0.040525706093 0.02821276  0.00169412  0.2159168 0.7000
                               ***Turning on DIIS***
  2    -76.0163849605  -0.021004383842 0.01622251  0.00091654  0.1638902 0.7000
  3    -76.1927312529  -0.176346292437 0.00725829  0.00038630  0.1219031 0.7000
  4    -76.1557061841   0.037025068784 0.01577764  0.00087355  0.0862213 0.0000
  5    -76.0648056780   0.090900506135 0.00175078  0.00013948  0.0056680 0.0000
                      *** Initiating the SOSCF procedure ***
                           *** Shutting down DIIS ***
                      *** Re-Reading the Fockian *** 
                      *** Removing any level shift *** 
ITER      Energy       Delta-E        Grad      Rot      Max-DP    RMS-DP
  6    -76.05834934   0.0064563427  0.001162  0.001162  0.001160  0.000079
               *** Restarting incremental Fock matrix formation ***
  7    -76.05636634   0.0019829917  0.000353  0.000497  0.000344  0.000032
  8    -76.05636753  -0.0000011823  0.000228  0.000361  0.000476  0.000027
  9    -76.05636780  -0.0000002717  0.000067  0.000056  0.000074  0.000004
 10    -76.05636782  -0.0000000227  0.000008  0.000007  0.000006  0.000001
                  ***Gradient check signals convergence***
              ***Rediagonalizing the Fockian in SOSCF/NRSCF***

               *****************************************************
               *                     SUCCESS                       *
               *           SCF CONVERGED AFTER  11 CYCLES          *
               *****************************************************


----------------
TOTAL SCF ENERGY
----------------

Total Energy       :          -76.05636782 Eh           -2069.59898 eV

Components:
Nuclear Repulsion  :            9.00965771 Eh             245.16525 eV
Electronic Energy  :          -85.06602553 Eh           -2314.76423 eV
One Electron Energy:         -122.73928591 Eh           -3339.90577 eV
Two Electron Energy:           37.67326038 Eh            1025.14153 eV

Virial components:
Potential Energy   :         -151.98771339 Eh           -4135.79594 eV
Kinetic Energy     :           75.93134557 Eh            2066.19696 eV
Virial Ratio       :            2.00164652


---------------
SCF CONVERGENCE
---------------

  Last Energy change         ...   -4.0096e-10  Tolerance :   1.0000e-08
  Last MAX-Density change    ...    2.9329e-06  Tolerance :   1.0000e-07
  Last RMS-Density change    ...    2.6148e-07  Tolerance :   5.0000e-09
  Last Orbital Gradient      ...    2.2888e-06  Tolerance :   1.0000e-05
  Last Orbital Rotation      ...    3.2234e-06  Tolerance :   1.0000e-05

             **** THE GBW FILE WAS UPDATED (6h2o.temelso.etal.dset.1h2o.dset-orca.engrad-mp2.def2tzvp.gbw) ****
             **** DENSITY FILE WAS UPDATED (6h2o.temelso.etal.dset.1h2o.dset-orca.engrad-mp2.def2tzvp.scfp) ****
             **** ENERGY FILE WAS UPDATED (6h2o.temelso.etal.dset.1h2o.dset-orca.engrad-mp2.def2tzvp.en.tmp) ****
             **** THE GBW FILE WAS UPDATED (6h2o.temelso.etal.dset.1h2o.dset-orca.engrad-mp2.def2tzvp.gbw) ****
             **** DENSITY FILE WAS UPDATED (6h2o.temelso.etal.dset.1h2o.dset-orca.engrad-mp2.def2tzvp.scfp) ****
----------------
ORBITAL ENERGIES
----------------

  NO   OCC          E(Eh)            E(eV) 
   0   2.0000     -20.565315      -559.6107 
   1   2.0000      -1.342194       -36.5230 
   2   2.0000      -0.696088       -18.9415 
   3   2.0000      -0.585115       -15.9218 
   4   2.0000      -0.507675       -13.8145 
   5   0.0000       0.124778         3.3954 
   6   0.0000       0.196181         5.3384 
   7   0.0000       0.512081        13.9344 
   8   0.0000       0.568637        15.4734 
   9   0.0000       0.597284        16.2529 
  10   0.0000       0.639222        17.3941 
  11   0.0000       0.766325        20.8528 
  12   0.0000       0.769634        20.9428 
  13   0.0000       1.377200        37.4755 
  14   0.0000       1.445084        39.3227 
  15   0.0000       1.534299        41.7504 
  16   0.0000       1.787261        48.6338 
  17   0.0000       1.915014        52.1102 
  18   0.0000       2.034109        55.3509 
  19   0.0000       2.293775        62.4168 
  20   0.0000       2.355078        64.0849 
  21   0.0000       2.364145        64.3317 
  22   0.0000       2.593244        70.5657 
  23   0.0000       2.633365        71.6575 
  24   0.0000       2.927159        79.6521 
  25   0.0000       2.951523        80.3150 
  26   0.0000       3.024086        82.2896 
  27   0.0000       3.133753        85.2738 
  28   0.0000       4.045720       110.0896 
  29   0.0000       4.266086       116.0861 
  30   0.0000       5.544296       150.8680 
  31   0.0000       5.665180       154.1574 
  32   0.0000       5.810366       158.1081 
  33   0.0000       5.848619       159.1490 
  34   0.0000       5.852514       159.2550 
  35   0.0000       6.492811       176.6784 
  36   0.0000       6.669271       181.4801 
  37   0.0000       6.834518       185.9767 
  38   0.0000       6.876311       187.1139 
  39   0.0000       6.970609       189.6799 
  40   0.0000       7.306003       198.8065 
  41   0.0000       7.531557       204.9441 
  42   0.0000      44.808833      1219.3103 

                    ********************************
                    * MULLIKEN POPULATION ANALYSIS *
                    ********************************

-----------------------
MULLIKEN ATOMIC CHARGES
-----------------------
   0 O :   -0.682170
   1 H :    0.340604
   2 H :    0.341566
Sum of atomic charges:    0.0000000

--------------------------------
MULLIKEN REDUCED ORBITAL CHARGES
--------------------------------
  0 O s       :     3.821499  s :     3.821499
      pz      :     1.465863  p :     4.831677
      px      :     1.939386
      py      :     1.426429
      dz2     :     0.014649  d :     0.027507
      dxz     :     0.002314
      dyz     :     0.000873
      dx2y2   :     0.008441
      dxy     :     0.001231
      f0      :     0.000436  f :     0.001487
      f+1     :     0.000204
      f-1     :     0.000151
      f+2     :     0.000041
      f-2     :     0.000024
      f+3     :     0.000130
      f-3     :     0.000500
  1 H s       :     0.614260  s :     0.614260
      pz      :     0.019155  p :     0.045136
      px      :     0.015368
      py      :     0.010613
  2 H s       :     0.614401  s :     0.614401
      pz      :     0.010235  p :     0.044033
      px      :     0.014653
      py      :     0.019145


                     *******************************
                     * LOEWDIN POPULATION ANALYSIS *
                     *******************************

----------------------
LOEWDIN ATOMIC CHARGES
----------------------
   0 O :   -0.335680
   1 H :    0.164298
   2 H :    0.171382

-------------------------------
LOEWDIN REDUCED ORBITAL CHARGES
-------------------------------
  0 O s       :     3.486263  s :     3.486263
      pz      :     1.483876  p :     4.812430
      px      :     1.886309
      py      :     1.442245
      dz2     :     0.020084  d :     0.034736
      dxz     :     0.002043
      dyz     :     0.000336
      dx2y2   :     0.011520
      dxy     :     0.000752
      f0      :     0.000823  f :     0.002250
      f+1     :     0.000242
      f-1     :     0.000420
      f+2     :     0.000003
      f-2     :     0.000013
      f+3     :     0.000077
      f-3     :     0.000671
  1 H s       :     0.678494  s :     0.678494
      pz      :     0.082401  p :     0.157208
      px      :     0.046079
      py      :     0.028729
  2 H s       :     0.676281  s :     0.676281
      pz      :     0.027955  p :     0.152336
      px      :     0.042707
      py      :     0.081674


                      *****************************
                      * MAYER POPULATION ANALYSIS *
                      *****************************

  NA   - Mulliken gross atomic population
  ZA   - Total nuclear charge
  QA   - Mulliken gross atomic charge
  VA   - Mayer's total valence
  BVA  - Mayer's bonded valence
  FA   - Mayer's free valence

  ATOM       NA         ZA         QA         VA         BVA        FA
  0 O      8.6822     8.0000    -0.6822     1.7872     1.7872     0.0000
  1 H      0.6594     1.0000     0.3406     0.8977     0.8977     0.0000
  2 H      0.6584     1.0000     0.3416     0.8964     0.8964    -0.0000

  Mayer bond orders larger than 0.100000
B(  0-O ,  1-H ) :   0.8942 B(  0-O ,  2-H ) :   0.8929 

-------
TIMINGS
-------

Total SCF time: 0 days 0 hours 0 min 1 sec 

Total time                  ....       1.131 sec
Sum of individual times     ....       0.987 sec  ( 87.2%)

Fock matrix formation       ....       0.905 sec  ( 80.0%)
Diagonalization             ....       0.002 sec  (  0.2%)
Density matrix formation    ....       0.001 sec  (  0.1%)
Population analysis         ....       0.001 sec  (  0.1%)
Initial guess               ....       0.070 sec  (  6.2%)
Orbital Transformation      ....       0.000 sec  (  0.0%)
Orbital Orthonormalization  ....       0.000 sec  (  0.0%)
DIIS solution               ....       0.001 sec  (  0.1%)
SOSCF solution              ....       0.001 sec  (  0.1%)


           ************************************************************
           *        Program running with 12 parallel MPI-processes    *
           *              working on a common directory               *
           ************************************************************

------------------------------------------------------------------------------
                                ORCA  MP2 
------------------------------------------------------------------------------

Freezing NCore=2 chemical core electrons
MP2 will be done in the AO integral direct mode
The Q1-step will be done using symmetric double matrices
Dimension of the basis                    ...   43
Memory devoted for MP2                    ... 8000 MB   
Memory needed for all in one shot         ...    1 MB
Number of MOs that can be treated together... 25776      
MP2 density construction                  ... relaxed
The MP2 gradient is requested => amplitudes will be stored on disk
Total number of MOs              ...    4
Number of MOs treated per batch  ...    1 
Number of batches necessary      ...    1 
OPERATORS   0/  0 PASS   0
-----------------------------------------------
 MP2 CORRELATION ENERGY   :     -0.255926252 Eh
-----------------------------------------------


---------------------
MP2 DENSITY FORMATION
---------------------

Completing the external part of the density      ... done
Storing the unrelaxed density                    ... done

Calculating G(D)                                 ... done
Completing the Lagrangian                        ... done
Solving the Z-vector equations                   ... 

------------------------------------------------------------------------------
                           ORCA CP-SCF CALCULATION
------------------------------------------------------------------------------

Input orbitals are from        ... 6h2o.temelso.etal.dset.1h2o.dset-orca.engrad-mp2.def2tzvp.gbw
Input Perturbation             ... 6h2o.temelso.etal.dset.1h2o.dset-orca.engrad-mp2.def2tzvp.pin.tmp
Wavefunction output            ... 6h2o.temelso.etal.dset.1h2o.dset-orca.engrad-mp2.def2tzvp.pout.tmp
Perturbation mode              ... Real perturbation (singlet)
Solver                         ... POPLE
Max. number of iterations      ... 128
Convergence tolerance          ... 1.000e-08
Integral handling              ... Direct
Number of perturbations        ... 1
Number of operators            ... 1
Orbital ranges used for CP-SCF:
 Operator 0:  Orbitals   0...  4  to   5... 42
Variables per vector in CP-SCF ... 190
Number of vectors sought       ... 1
     CP-SCF ITERATION   0: 
     CP-SCF ITERATION   1:      0.000112796290
     CP-SCF ITERATION   2:      0.000002171221
     CP-SCF ITERATION   3:      0.000000063168
     CP-SCF ITERATION   4:      0.000000000847
                                                 ... done
Finalizing the relaxed density                   ... done
Transforming P to the AO basis                   ... done
Storing the relaxed density                      ... done

------------------------------------
ENERGY WEIGHTED DENSITY FINALIZATION
------------------------------------

Gathering the parts of the W-matrix              ...                                                      done
Forming the Z-density                            ... done
Transforming Z to the AO basis                   ... done
Calculating G(Z)                                 ... done
Finalizing the W-matrix                          ...                                                      done
Transforming W to the AO basis and storing       ... done

                *********************************************
                * UNRELAXED MP2 DENSITY POPULATION ANALYSIS *
                *********************************************

------------------------------------------------------------------------------
                           ORCA POPULATION ANALYSIS
------------------------------------------------------------------------------
Input electron density              ... 6h2o.temelso.etal.dset.1h2o.dset-orca.engrad-mp2.def2tzvp.pmp2ur
BaseName (.gbw .S,...)              ... 6h2o.temelso.etal.dset.1h2o.dset-orca.engrad-mp2.def2tzvp

                    ********************************
                    * MULLIKEN POPULATION ANALYSIS *
                    ********************************

-----------------------
MULLIKEN ATOMIC CHARGES
-----------------------
   0 O :   -0.677195
   1 H :    0.338181
   2 H :    0.339014
Sum of atomic charges:    0.0000000

--------------------------------
MULLIKEN REDUCED ORBITAL CHARGES
--------------------------------
  0 O s       :     3.816576  s :     3.816576
      pz      :     1.457224  p :     4.802930
      px      :     1.927601
      py      :     1.418105
      dz2     :     0.019472  d :     0.053660
      dxz     :     0.007773
      dyz     :     0.006135
      dx2y2   :     0.013540
      dxy     :     0.006741
      f0      :     0.000809  f :     0.004029
      f+1     :     0.000571
      f-1     :     0.000524
      f+2     :     0.000404
      f-2     :     0.000377
      f+3     :     0.000494
      f-3     :     0.000851
  1 H s       :     0.615003  s :     0.615003
[...]
  VA   - Mayer's total valence
  BVA  - Mayer's bonded valence
  FA   - Mayer's free valence

  ATOM       NA         ZA         QA         VA         BVA        FA
  0 O      8.6945     8.0000    -0.6945     1.7765     1.7765     0.0000
  1 H      0.6515     1.0000     0.3485     0.8916     0.8916     0.0000
  2 H      0.6540     1.0000     0.3460     0.8947     0.8947     0.0000

  Mayer bond orders larger than 0.100000
B(  0-O ,  1-H ) :   0.8867 B(  0-O ,  2-H ) :   0.8898 

-------
TIMINGS
-------

Total SCF time: 0 days 0 hours 0 min 1 sec 

Total time                  ....       1.562 sec
Sum of individual times     ....       1.401 sec  ( 89.7%)

Fock matrix formation       ....       1.391 sec  ( 89.1%)
Diagonalization             ....       0.004 sec  (  0.2%)
Density matrix formation    ....       0.001 sec  (  0.1%)
Population analysis         ....       0.001 sec  (  0.0%)
Initial guess               ....       0.001 sec  (  0.1%)
Orbital Transformation      ....       0.000 sec  (  0.0%)
Orbital Orthonormalization  ....       0.000 sec  (  0.0%)
DIIS solution               ....       0.002 sec  (  0.1%)
SOSCF solution              ....       0.001 sec  (  0.1%)


           ************************************************************
           *        Program running with 12 parallel MPI-processes    *
           *              working on a common directory               *
           ************************************************************

------------------------------------------------------------------------------
                                ORCA  MP2 
------------------------------------------------------------------------------

Freezing NCore=2 chemical core electrons
MP2 will be done in the AO integral direct mode
The Q1-step will be done using symmetric double matrices
Dimension of the basis                    ...   43
Memory devoted for MP2                    ... 8000 MB   
Memory needed for all in one shot         ...    1 MB
Number of MOs that can be treated together... 25776      
MP2 density construction                  ... relaxed
The MP2 gradient is requested => amplitudes will be stored on disk
Total number of MOs              ...    4
Number of MOs treated per batch  ...    1 
Number of batches necessary      ...    1 
OPERATORS   0/  0 PASS   0
-----------------------------------------------
 MP2 CORRELATION ENERGY   :     -0.255336395 Eh
-----------------------------------------------


---------------------
MP2 DENSITY FORMATION
---------------------

Completing the external part of the density      ... done
Storing the unrelaxed density                    ... done

Calculating G(D)                                 ... done
Completing the Lagrangian                        ... done
Solving the Z-vector equations                   ... 

------------------------------------------------------------------------------
                           ORCA CP-SCF CALCULATION
------------------------------------------------------------------------------

Input orbitals are from        ... 6h2o.temelso.etal.dset.1h2o.dset-orca.engrad-mp2.def2tzvp_job48.gbw
Input Perturbation             ... 6h2o.temelso.etal.dset.1h2o.dset-orca.engrad-mp2.def2tzvp_job48.pin.tmp
Wavefunction output            ... 6h2o.temelso.etal.dset.1h2o.dset-orca.engrad-mp2.def2tzvp_job48.pout.tmp
Perturbation mode              ... Real perturbation (singlet)
Solver                         ... POPLE
Max. number of iterations      ... 128
Convergence tolerance          ... 1.000e-08
Integral handling              ... Direct
Number of perturbations        ... 1
Number of operators            ... 1
Orbital ranges used for CP-SCF:
 Operator 0:  Orbitals   0...  4  to   5... 42
Variables per vector in CP-SCF ... 190
Number of vectors sought       ... 1
     CP-SCF ITERATION   0: 
     CP-SCF ITERATION   1:      0.000105669325
     CP-SCF ITERATION   2:      0.000001926681
     CP-SCF ITERATION   3:      0.000000050783
     CP-SCF ITERATION   4:      0.000000000661
                                                 ... done
Finalizing the relaxed density                   ... done
Transforming P to the AO basis                   ... done
Storing the relaxed density                      ... done

------------------------------------
ENERGY WEIGHTED DENSITY FINALIZATION
------------------------------------

Gathering the parts of the W-matrix              ...                                                      done
Forming the Z-density                            ... done
Transforming Z to the AO basis                   ... done
Calculating G(Z)                                 ... done
Finalizing the W-matrix                          ...                                                      done
Transforming W to the AO basis and storing       ... done

                *********************************************
                * UNRELAXED MP2 DENSITY POPULATION ANALYSIS *
                *********************************************

------------------------------------------------------------------------------
                           ORCA POPULATION ANALYSIS
------------------------------------------------------------------------------
Input electron density              ... 6h2o.temelso.etal.dset.1h2o.dset-orca.engrad-mp2.def2tzvp_job48.pmp2ur
BaseName (.gbw .S,...)              ... 6h2o.temelso.etal.dset.1h2o.dset-orca.engrad-mp2.def2tzvp_job48

                    ********************************
                    * MULLIKEN POPULATION ANALYSIS *
                    ********************************

-----------------------
MULLIKEN ATOMIC CHARGES
-----------------------
   0 O :   -0.689887
   1 H :    0.346046
   2 H :    0.343842
Sum of atomic charges:   -0.0000000

--------------------------------
MULLIKEN REDUCED ORBITAL CHARGES
--------------------------------
  0 O s       :     3.808498  s :     3.808498
      pz      :     1.915433  p :     4.824981
      px      :     1.279404
      py      :     1.630144
      dz2     :     0.009466  d :     0.052312
      dxz     :     0.007506
      dyz     :     0.008807
      dx2y2   :     0.005820
      dxy     :     0.020713
      f0      :     0.000601  f :     0.004097
      f+1     :     0.000721
      f-1     :     0.000557
      f+2     :     0.000391
      f-2     :     0.000549
      f+3     :     0.000407
      f-3     :     0.000871
  1 H s       :     0.608970  s :     0.608970
      pz      :     0.015375  p :     0.044985
      px      :     0.016280
      py      :     0.013330
  2 H s       :     0.608839  s :     0.608839
      pz      :     0.016151  p :     0.047319
      px      :     0.015851
      py      :     0.015317


                     *******************************
                     * LOEWDIN POPULATION ANALYSIS *
                     *******************************

----------------------
LOEWDIN ATOMIC CHARGES
----------------------
   0 O :   -0.330684
   1 H :    0.172755
   2 H :    0.157929

-------------------------------
LOEWDIN REDUCED ORBITAL CHARGES
-------------------------------
  0 O s       :     3.470458  s :     3.470458
      pz      :     1.867106  p :     4.794529
      px      :     1.288416
      py      :     1.639007
      dz2     :     0.010709  d :     0.060764
      dxz     :     0.008280
      dyz     :     0.007571
      dx2y2   :     0.005909
      dxy     :     0.028295
      f0      :     0.000542  f :     0.004932
      f+1     :     0.000823
      f-1     :     0.000550
      f+2     :     0.000393
      f-2     :     0.000732
      f+3     :     0.000570
      f-3     :     0.001320
  1 H s       :     0.672814  s :     0.672814
      pz      :     0.044863  p :     0.154431
      px      :     0.061123
      py      :     0.048444
  2 H s       :     0.677517  s :     0.677517
      pz      :     0.047432  p :     0.164554
      px      :     0.057069
      py      :     0.060053


                      *****************************
                      * MAYER POPULATION ANALYSIS *
                      *****************************

  NA   - Mulliken gross atomic population
  ZA   - Total nuclear charge
  QA   - Mulliken gross atomic charge
  VA   - Mayer's total valence
  BVA  - Mayer's bonded valence
  FA   - Mayer's free valence

  ATOM       NA         ZA         QA         VA         BVA        FA
  0 O      8.6899     8.0000    -0.6899     2.0792     1.6946     0.3846
  1 H      0.6540     1.0000     0.3460     0.8976     0.8495     0.0480
  2 H      0.6562     1.0000     0.3438     0.9006     0.8541     0.0465

  Mayer bond orders larger than 0.100000
B(  0-O ,  1-H ) :   0.8450 B(  0-O ,  2-H ) :   0.8496 


                *******************************************
                * RELAXED MP2 DENSITY POPULATION ANALYSIS *
                *******************************************

------------------------------------------------------------------------------
                           ORCA POPULATION ANALYSIS
------------------------------------------------------------------------------
Input electron density              ... 6h2o.temelso.etal.dset.1h2o.dset-orca.engrad-mp2.def2tzvp_job48.pmp2re
BaseName (.gbw .S,...)              ... 6h2o.temelso.etal.dset.1h2o.dset-orca.engrad-mp2.def2tzvp_job48

                    ********************************
                    * MULLIKEN POPULATION ANALYSIS *
                    ********************************

-----------------------
MULLIKEN ATOMIC CHARGES
-----------------------
   0 O :   -0.677378
   1 H :    0.339914
   2 H :    0.337464
Sum of atomic charges:   -0.0000000

--------------------------------
MULLIKEN REDUCED ORBITAL CHARGES
--------------------------------
  0 O s       :     3.813388  s :     3.813388
      pz      :     1.912237  p :     4.809977
      px      :     1.276400
      py      :     1.621339
      dz2     :     0.009198  d :     0.049991
      dxz     :     0.007260
      dyz     :     0.008887
      dx2y2   :     0.005878
      dxy     :     0.018769
      f0      :     0.000595  f :     0.004022
      f+1     :     0.000712
      f-1     :     0.000551
      f+2     :     0.000390
      f-2     :     0.000539
      f+3     :     0.000400
      f-3     :     0.000836
  1 H s       :     0.614403  s :     0.614403
      pz      :     0.016374  p :     0.045684
      px      :     0.015513
      py      :     0.013797
  2 H s       :     0.614471  s :     0.614471
      pz      :     0.017184  p :     0.048064
      px      :     0.015315
      py      :     0.015565


                     *******************************
                     * LOEWDIN POPULATION ANALYSIS *
                     *******************************

----------------------
LOEWDIN ATOMIC CHARGES
----------------------
   0 O :   -0.334069
   1 H :    0.174516
   2 H :    0.159553

-------------------------------
LOEWDIN REDUCED ORBITAL CHARGES
-------------------------------
  0 O s       :     3.472658  s :     3.472658
      pz      :     1.864933  p :     4.797081
      px      :     1.294379
      py      :     1.637769
      dz2     :     0.010588  d :     0.059381
      dxz     :     0.008137
      dyz     :     0.007665
      dx2y2   :     0.005831
      dxy     :     0.027159
      f0      :     0.000546  f :     0.004950
      f+1     :     0.000830
      f-1     :     0.000554
      f+2     :     0.000393
      f-2     :     0.000731
      f+3     :     0.000564
      f-3     :     0.001331
  1 H s       :     0.670860  s :     0.670860
      pz      :     0.045889  p :     0.154623
      px      :     0.059768
      py      :     0.048967
  2 H s       :     0.675806  s :     0.675806
      pz      :     0.048437  p :     0.164641
      px      :     0.055843
      py      :     0.060362


                      *****************************
                      * MAYER POPULATION ANALYSIS *
                      *****************************

  NA   - Mulliken gross atomic population
  ZA   - Total nuclear charge
  QA   - Mulliken gross atomic charge
  VA   - Mayer's total valence
  BVA  - Mayer's bonded valence
  FA   - Mayer's free valence

  ATOM       NA         ZA         QA         VA         BVA        FA
  0 O      8.6774     8.0000    -0.6774     2.0833     1.7034     0.3799
  1 H      0.6601     1.0000     0.3399     0.9020     0.8539     0.0481
  2 H      0.6625     1.0000     0.3375     0.9052     0.8586     0.0465

  Mayer bond orders larger than 0.100000
B(  0-O ,  1-H ) :   0.8493 B(  0-O ,  2-H ) :   0.8540 


----------------------------------
MP2 DERIVATIVE INTEGRAL GENERATION
----------------------------------


Input Wavefunction Amplitudes       ... 6h2o.temelso.etal.dset.1h2o.dset-orca.engrad-mp2.def2tzvp_job48.mp2tsaa.tmp
Input Correlated Electron Density   ... 6h2o.temelso.etal.dset.1h2o.dset-orca.engrad-mp2.def2tzvp_job48.pmp2re
Input Energy Weighted Density       ... 6h2o.temelso.etal.dset.1h2o.dset-orca.engrad-mp2.def2tzvp_job48.wmp2.tmp
Input SCF Electron Density          ... 6h2o.temelso.etal.dset.1h2o.dset-orca.engrad-mp2.def2tzvp_job48.scfp

One-Electron Terms    ...
                        ... One-Electron Terms done
Prescreening matrices              ... done

Batch handling in the gradient evaluation:
Memory available                      ... 8000.0 MB
Memory per occupied orbital in Q2     ...    0.1 MB
Memory per occupied orbital in Q3     ...    0.0 MB
Total memory requirement per |i>      ...    0.1 MB
Max. Number of orbitals possible      ... 110341
Number of orbitals treated per batch  ...      4
Number of batches to be done          ...      1
Batch   0: i=    1 ...     4

---------------------------------------
MP2 TOTAL ENERGY:      -76.312520684 Eh
---------------------------------------

The final MP2 gradient
  0:   0.01715668  -0.01012104   0.00456520
  1:  -0.01964931   0.01019708  -0.00474758
  2:   0.00249263  -0.00007604   0.00018238

-----------------------------------
NORM OF THE MP2 GRADIENT:  0.030602
-----------------------------------

-------------------------   --------------------
FINAL SINGLE POINT ENERGY       -76.312520683954
-------------------------   --------------------


                            ***************************************
                            *     ORCA property calculations      *
                            ***************************************

                                    ---------------------
                                    Active property flags
                                    ---------------------
   (+) Dipole Moment


------------------------------------------------------------------------------
                       ORCA ELECTRIC PROPERTIES CALCULATION
------------------------------------------------------------------------------

Dipole Moment Calculation                       ... on
Quadrupole Moment Calculation                   ... off
Polarizability Calculation                      ... off
GBWName                                         ... 6h2o.temelso.etal.dset.1h2o.dset-orca.engrad-mp2.def2tzvp_job48.gbw
Electron density file                           ... 6h2o.temelso.etal.dset.1h2o.dset-orca.engrad-mp2.def2tzvp_job48.scfp
The origin for moment calculation is the CENTER OF MASS  = (-0.000001,  0.000017 -0.000006)

-------------
DIPOLE MOMENT
-------------
                                X             Y             Z
Electronic contribution:      0.01585      -0.12700       0.04479
Nuclear contribution   :     -0.07408       0.92775      -0.32454
                        -----------------------------------------
Total Dipole Moment    :     -0.05823       0.80075      -0.27975
                        -----------------------------------------
Magnitude (a.u.)       :      0.85020
Magnitude (Debye)      :      2.16105



--------------------
Rotational spectrum 
--------------------
 
Rotational constants in cm-1:    26.887698    13.927966     9.175177 
Rotational constants in MHz : 806072.911074 417549.929897 275064.894378 

 Dipole components along the rotational axes: 
x,y,z [a.u.] :    -0.034991     0.849484     0.000001 
x,y,z [Debye]:    -0.088939     2.159218     0.000001 

 

                         *** MP2 UNRELAXED DENSITY ***

------------------------------------------------------------------------------
                       ORCA ELECTRIC PROPERTIES CALCULATION
------------------------------------------------------------------------------

Dipole Moment Calculation                       ... on
Quadrupole Moment Calculation                   ... off
Polarizability Calculation                      ... off
GBWName                                         ... 6h2o.temelso.etal.dset.1h2o.dset-orca.engrad-mp2.def2tzvp_job48.gbw
Electron density file                           ... 6h2o.temelso.etal.dset.1h2o.dset-orca.engrad-mp2.def2tzvp_job48.pmp2ur
The origin for moment calculation is the CENTER OF MASS  = (-0.000001,  0.000017 -0.000006)

-------------
DIPOLE MOMENT
-------------
                                X             Y             Z
Electronic contribution:      0.01694      -0.13611       0.04799
Nuclear contribution   :     -0.07408       0.92775      -0.32454
                        -----------------------------------------
Total Dipole Moment    :     -0.05714       0.79164      -0.27654
                        -----------------------------------------
Magnitude (a.u.)       :      0.84049
Magnitude (Debye)      :      2.13637



--------------------
Rotational spectrum 
--------------------
 
Rotational constants in cm-1:    26.887698    13.927966     9.175177 
Rotational constants in MHz : 806072.911074 417549.929897 275064.894378 

 Dipole components along the rotational axes: 
x,y,z [a.u.] :    -0.034160     0.839800     0.000001 
x,y,z [Debye]:    -0.086827     2.134601     0.000001 

 

                           *** MP2 RELAXED DENSITY ***

------------------------------------------------------------------------------
                       ORCA ELECTRIC PROPERTIES CALCULATION
------------------------------------------------------------------------------

Dipole Moment Calculation                       ... on
Quadrupole Moment Calculation                   ... off
Polarizability Calculation                      ... off
GBWName                                         ... 6h2o.temelso.etal.dset.1h2o.dset-orca.engrad-mp2.def2tzvp_job48.gbw
Electron density file                           ... 6h2o.temelso.etal.dset.1h2o.dset-orca.engrad-mp2.def2tzvp_job48.pmp2re
The origin for moment calculation is the CENTER OF MASS  = (-0.000001,  0.000017 -0.000006)

-------------
DIPOLE MOMENT
-------------
                                X             Y             Z
Electronic contribution:      0.01723      -0.14590       0.05139
Nuclear contribution   :     -0.07408       0.92775      -0.32454
                        -----------------------------------------
Total Dipole Moment    :     -0.05685       0.78185      -0.27315
                        -----------------------------------------
Magnitude (a.u.)       :      0.83014
Magnitude (Debye)      :      2.11005



--------------------
Rotational spectrum 
--------------------
 
Rotational constants in cm-1:    26.887698    13.927966     9.175177 
Rotational constants in MHz : 806072.911074 417549.929897 275064.894378 

 Dipole components along the rotational axes: 
x,y,z [a.u.] :    -0.034156     0.829438     0.000000 
x,y,z [Debye]:    -0.086817     2.108263     0.000001 

 

Timings for individual modules:

Sum of individual times         ...        4.444 sec (=   0.074 min)
GTO integral calculation        ...        0.823 sec (=   0.014 min)  18.5 %
SCF iterations                  ...        2.193 sec (=   0.037 min)  49.3 %
MP2 module                      ...        1.428 sec (=   0.024 min)  32.1 %



                             ****ORCA TERMINATED NORMALLY****
TOTAL RUN TIME: 0 days 0 hours 4 minutes 10 seconds 246 msec
