
                                 *****************
                                 * O   R   C   A *
                                 *****************

           --- An Ab Initio, DFT and Semiempirical electronic structure package ---

                  #######################################################
                  #                        -***-                        #
                  #          Department of theory and spectroscopy      #
                  #               Directorship: Frank Neese             #
                  #        Max Planck Institute fuer Kohlenforschung    #
                  #                Kaiser Wilhelm Platz 1               #
                  #                 D-45470 Muelheim/Ruhr               #
                  #                      Germany                        #
                  #                                                     #
                  #                  All rights reserved                #
                  #                        -***-                        #
                  #######################################################


                         Program Version 4.2.0 -  RELEASE  -


 With contributions from (in alphabetic order):
   Daniel Aravena         : Magnetic Suceptibility
   Michael Atanasov       : Ab Initio Ligand Field Theory (pilot matlab implementation)
   Alexander A. Auer      : GIAO ZORA, VPT2
   Ute Becker             : Parallelization
   Giovanni Bistoni       : ED, misc. LED, open-shell LED, HFLED
   Martin Brehm           : Molecular dynamics
   Dmytro Bykov           : SCF Hessian
   Vijay G. Chilkuri      : MRCI spin determinant printing, contributions to CSF-ICE
   Dipayan Datta          : RHF DLPNO-CCSD density
   Achintya Kumar Dutta   : EOM-CC, STEOM-CC
   Dmitry Ganyushin       : Spin-Orbit,Spin-Spin,Magnetic field MRCI
   Miquel Garcia          : C-PCM Hessian, Gaussian charge scheme
   Yang Guo               : DLPNO-NEVPT2, CIM, IAO-localization
   Andreas Hansen         : Spin unrestricted coupled pair/coupled cluster methods
   Benjamin Helmich-Paris : CASSCF linear response (MC-RPA)
   Lee Huntington         : MR-EOM, pCC
   Robert Izsak           : Overlap fitted RIJCOSX, COSX-SCS-MP3, EOM
   Christian Kollmar      : KDIIS, OOCD, Brueckner-CCSD(T), CCSD density
   Simone Kossmann        : Meta GGA functionals, TD-DFT gradient, OOMP2, MP2 Hessian
   Martin Krupicka        : AUTO-CI
   Lucas Lang             : DCDCAS
   Dagmar Lenk            : GEPOL surface, SMD
   Dimitrios Liakos       : Extrapolation schemes; Compound Job, initial MDCI parallelization
   Dimitrios Manganas     : Further ROCIS development; embedding schemes
   Dimitrios Pantazis     : SARC Basis sets
   Taras Petrenko         : DFT Hessian,TD-DFT gradient, ASA, ECA, R-Raman, ABS, FL, XAS/XES, NRVS
   Peter Pinski           : DLPNO-MP2, DLPNO-MP2 Gradient
   Christoph Reimann      : Effective Core Potentials
   Marius Retegan         : Local ZFS, SOC
   Christoph Riplinger    : Optimizer, TS searches, QM/MM, DLPNO-CCSD(T), (RO)-DLPNO pert. Triples
   Tobias Risthaus        : Range-separated hybrids, TD-DFT gradient, RPA, STAB
   Michael Roemelt        : Original ROCIS implementation
   Masaaki Saitow         : Open-shell DLPNO-CCSD energy and density
   Barbara Sandhoefer     : DKH picture change effects
   Avijit Sen             : IP-ROCIS
   Kantharuban Sivalingam : CASSCF convergence, NEVPT2, FIC-MRCI
   Bernardo de Souza      : ESD, SOC TD-DFT
   Georgi Stoychev        : AutoAux, RI-MP2 NMR
   Willem Van den Heuvel  : Paramagnetic NMR
   Boris Wezisla          : Elementary symmetry handling
   Frank Wennmohs         : Technical directorship


 We gratefully acknowledge several colleagues who have allowed us to
 interface, adapt or use parts of their codes:
   Stefan Grimme, W. Hujo, H. Kruse,             : VdW corrections, initial TS optimization,
                  C. Bannwarth                     DFT functionals, gCP, sTDA/sTD-DF
   Ed Valeev, F. Pavosevic, A. Kumar             : LibInt (2-el integral package), F12 methods
   Garnet Chan, S. Sharma, J. Yang, R. Olivares  : DMRG
   Ulf Ekstrom                                   : XCFun DFT Library
   Mihaly Kallay                                 : mrcc  (arbitrary order and MRCC methods)
   Andreas Klamt, Michael Diedenhofen            : otool_cosmo (COSMO solvation model)
   Jiri Pittner, Ondrej Demel                    : Mk-CCSD
   Frank Weinhold                                : gennbo (NPA and NBO analysis)
   Christopher J. Cramer and Donald G. Truhlar   : smd solvation model
   Lars Goerigk                                  : TD-DFT with DH, B97 family of functionals
   V. Asgeirsson, H. Jonsson                     : NEB implementation
   FAccTs GmbH                                   : IRC, NEB, NEB-TS, Multilevel, MM, QM/MM, CI optimization
   S Lehtola, MJT Oliveira, MAL Marques          : LibXC Library


 Your calculation uses the libint2 library for the computation of 2-el integrals
 For citations please refer to: http://libint.valeyev.net

 Your ORCA version has been built with support for libXC version: 4.2.3
 For citations please refer to: https://tddft.org/programs/libxc/

 This ORCA versions uses:
   CBLAS   interface :  Fast vector & matrix operations
   LAPACKE interface :  Fast linear algebra routines
   SCALAPACK package :  Parallel linear algebra routines


----- Orbital basis set information -----
Your calculation utilizes the basis: def2-TZVP
   F. Weigend and R. Ahlrichs, Phys. Chem. Chem. Phys. 7, 3297 (2005).

================================================================================
                                        WARNINGS
                       Please study these warnings very carefully!
================================================================================


WARNING: The frozen-core approximation for MP2-gradient calculations is turned on by default.

INFO   : the flag for use of LIBINT has been found!

----- Orbital basis set information -----
Your calculation utilizes the basis: def2-TZVP
   F. Weigend and R. Ahlrichs, Phys. Chem. Chem. Phys. 7, 3297 (2005).

================================================================================
                                        WARNINGS
                       Please study these warnings very carefully!
================================================================================


WARNING: The frozen-core approximation for MP2-gradient calculations is turned on by default.

INFO   : the flag for use of LIBINT has been found!

----- Orbital basis set information -----
Your calculation utilizes the basis: def2-TZVP
   F. Weigend and R. Ahlrichs, Phys. Chem. Chem. Phys. 7, 3297 (2005).

================================================================================
                                        WARNINGS
                       Please study these warnings very carefully!
================================================================================


WARNING: The frozen-core approximation for MP2-gradient calculations is turned on by default.

INFO   : the flag for use of LIBINT has been found!

----- Orbital basis set information -----
Your calculation utilizes the basis: def2-TZVP
   F. Weigend and R. Ahlrichs, Phys. Chem. Chem. Phys. 7, 3297 (2005).

================================================================================
                                        WARNINGS
                       Please study these warnings very carefully!
================================================================================


WARNING: The frozen-core approximation for MP2-gradient calculations is turned on by default.

INFO   : the flag for use of LIBINT has been found!

----- Orbital basis set information -----
Your calculation utilizes the basis: def2-TZVP
   F. Weigend and R. Ahlrichs, Phys. Chem. Chem. Phys. 7, 3297 (2005).

================================================================================
                                        WARNINGS
                       Please study these warnings very carefully!
================================================================================


WARNING: The frozen-core approximation for MP2-gradient calculations is turned on by default.

INFO   : the flag for use of LIBINT has been found!

----- Orbital basis set information -----
Your calculation utilizes the basis: def2-TZVP
   F. Weigend and R. Ahlrichs, Phys. Chem. Chem. Phys. 7, 3297 (2005).

================================================================================
                                        WARNINGS
                       Please study these warnings very carefully!
================================================================================


WARNING: The frozen-core approximation for MP2-gradient calculations is turned on by default.

INFO   : the flag for use of LIBINT has been found!

================================================================================
                                       INPUT FILE
================================================================================
NAME = 62meoh.sphere.gfn2.md.500k.prod1.3meoh.cm.14.dset.1meoh.dset-orca.engrad-mp2.def2tzvp-13000.to.13005.inp
|  1> # 62meoh.sphere.gfn2.md.500k.prod1.3meoh.cm.14.dset.1meoh.dset-orca.engrad-mp2.def2tzvp-13000.to.13005
|  2> ! MP2 def2-TZVP EnGrad TightSCF FrozenCore
|  3> 
|  4> %pal
|  5>     nprocs 12
|  6> end
|  7> 
|  8> %maxcore 8000
|  9> 
| 10> %scf
| 11>     ConvForced true
| 12> end
| 13> 
| 14> *xyz 0 1
| 15> O  -0.296592244   0.598934382  -0.161854634
| 16> H  -1.226282463   0.617471316   0.078015475
| 17> C   0.354724616  -0.615974802   0.155132215
| 18> H  -0.232328476  -1.266713870   0.712926652
| 19> H   1.368686112  -0.423303122   0.694656073
| 20> H   0.571238793  -1.095217226  -0.764807903
| 21> *
| 22> 
| 23> 
| 24> $new_job
| 25> 
| 26> # 62meoh.sphere.gfn2.md.500k.prod1.3meoh.cm.14.dset.1meoh.dset-orca.engrad-mp2.def2tzvp-13000.to.13005
| 27> ! MP2 def2-TZVP EnGrad TightSCF FrozenCore
| 28> 
| 29> %pal
| 30>     nprocs 12
| 31> end
| 32> 
| 33> %maxcore 8000
| 34> 
| 35> %scf
| 36>     ConvForced true
| 37> end
| 38> 
| 39> *xyz 0 1
| 40> O  -0.501093519   0.382030058   0.264949944
| 41> H  -1.324311883   0.039840761  -0.303979143
| 42> C   0.559183812  -0.377850159  -0.242988588
| 43> H   0.604036967  -0.569222240  -1.363880153
| 44> H   0.599510013  -1.302791414   0.323610433
| 45> H   1.412077350   0.270138160   0.033776609
| 46> *
| 47> 
| 48> 
| 49> $new_job
| 50> 
| 51> # 62meoh.sphere.gfn2.md.500k.prod1.3meoh.cm.14.dset.1meoh.dset-orca.engrad-mp2.def2tzvp-13000.to.13005
| 52> ! MP2 def2-TZVP EnGrad TightSCF FrozenCore
| 53> 
| 54> %pal
| 55>     nprocs 12
| 56> end
| 57> 
| 58> %maxcore 8000
| 59> 
| 60> %scf
| 61>     ConvForced true
| 62> end
| 63> 
| 64> *xyz 0 1
| 65> O  -0.057326579  -0.300712381   0.631243289
| 66> H   0.051851337   0.300350729   1.365291767
| 67> C   0.065816489   0.266473683  -0.716069623
| 68> H  -0.977186715   0.589234506  -0.906449655
| 69> H   0.432058824  -0.444932140  -1.350074698
| 70> H   0.619030603   1.153680032  -0.596672806
| 71> *
| 72> 
| 73> 
| 74> $new_job
| 75> 
| 76> # 62meoh.sphere.gfn2.md.500k.prod1.3meoh.cm.14.dset.1meoh.dset-orca.engrad-mp2.def2tzvp-13000.to.13005
| 77> ! MP2 def2-TZVP EnGrad TightSCF FrozenCore
| 78> 
| 79> %pal
| 80>     nprocs 12
| 81> end
| 82> 
| 83> %maxcore 8000
| 84> 
| 85> %scf
| 86>     ConvForced true
| 87> end
| 88> 
| 89> *xyz 0 1
| 90> O  -0.227151379  -0.500396586   0.426405375
| 91> H   0.478637727  -0.729942717   0.991349900
| 92> C   0.185744181   0.536327012  -0.473153982
| 93> H   1.261703524   0.312978500  -0.840638954
| 94> H   0.241338182   1.549731502  -0.015299205
| 95> H  -0.589108776   0.419847326  -1.266228452
| 96> *
| 97> 
| 98> 
| 99> $new_job
|100> 
|101> # 62meoh.sphere.gfn2.md.500k.prod1.3meoh.cm.14.dset.1meoh.dset-orca.engrad-mp2.def2tzvp-13000.to.13005
|102> ! MP2 def2-TZVP EnGrad TightSCF FrozenCore
|103> 
|104> %pal
|105>     nprocs 12
|106> end
|107> 
|108> %maxcore 8000
|109> 
|110> %scf
|111>     ConvForced true
|112> end
|113> 
|114> *xyz 0 1
|115> O   0.416210803   0.181263586   0.535268076
|116> H  -0.216563428   0.528978310   1.154505750
|117> C  -0.389362416  -0.209622924  -0.596796106
|118> H  -1.031746518  -1.043448866  -0.355000268
|119> H   0.359126150  -0.485177141  -1.344203853
|120> H  -1.078273581   0.620069505  -0.840925825
|121> *
|122> 
|123> 
|124> $new_job
|125> 
|126> # 62meoh.sphere.gfn2.md.500k.prod1.3meoh.cm.14.dset.1meoh.dset-orca.engrad-mp2.def2tzvp-13000.to.13005
|127> ! MP2 def2-TZVP EnGrad TightSCF FrozenCore
|128> 
|129> %pal
|130>     nprocs 12
|131> end
|132> 
|133> %maxcore 8000
|134> 
|135> %scf
|136>     ConvForced true
|137> end
|138> 
|139> *xyz 0 1
|140> O  -0.370708889   0.269271101   0.493191826
|141> H  -0.406036111   1.137496662   0.271694491
|142> C   0.381945875  -0.324473266  -0.499216783
|143> H   0.197924650  -0.074176131  -1.532203152
|144> H   0.214705587  -1.419166949  -0.369059360
|145> H   1.326916611  -0.052236498  -0.250886168
|146> *
|147> 
|148>                          ****END OF INPUT****
================================================================================


                 $$$$$$$$$$$$$$$$$$$$$$$$$$$$$$$$$$$$$$$$$$$$$$ 
                 $ THERE ARE  6 JOBS TO BE PROCESSED THIS RUN $
                 $$$$$$$$$$$$$$$$$$$$$$$$$$$$$$$$$$$$$$$$$$$$$$ 




                 $$$$$$$$$$$$$$$$  JOB NUMBER  1 $$$$$$$$$$$$$$


                     *******************************
                     * Energy+Gradient Calculation *
                     *******************************

---------------------------------
CARTESIAN COORDINATES (ANGSTROEM)
---------------------------------
  O     -0.296592    0.598934   -0.161855
  H     -1.226282    0.617471    0.078015
  C      0.354725   -0.615975    0.155132
  H     -0.232328   -1.266714    0.712927
  H      1.368686   -0.423303    0.694656
  H      0.571239   -1.095217   -0.764808

----------------------------
CARTESIAN COORDINATES (A.U.)
----------------------------
  NO LB      ZA    FRAG     MASS         X           Y           Z
   0 O     8.0000    0    15.999   -0.560478    1.131822   -0.305861
   1 H     1.0000    0     1.008   -2.317338    1.166852    0.147428
   2 C     6.0000    0    12.011    0.670332   -1.164024    0.293157
   3 H     1.0000    0     1.008   -0.439037   -2.393742    1.347236
   4 H     1.0000    0     1.008    2.586442   -0.799927    1.312710
   5 H     1.0000    0     1.008    1.079485   -2.069661   -1.445277

--------------------------------
INTERNAL COORDINATES (ANGSTROEM)
--------------------------------
 O      0   0   0     0.000000000000     0.00000000     0.00000000
 H      1   0   0     0.960315151613     0.00000000     0.00000000
 C      1   2   0     1.414460547321   113.97812544     0.00000000
 H      3   1   2     1.038858653233   113.46229627   352.45390186
 H      3   1   2     1.164614221533   111.26153562   227.37855693
 H      3   1   2     1.059642161538   106.73768560   110.49506675

---------------------------
INTERNAL COORDINATES (A.U.)
---------------------------
 O      0   0   0     0.000000000000     0.00000000     0.00000000
 H      1   0   0     1.814732638804     0.00000000     0.00000000
 C      1   2   0     2.672943061672   113.97812544     0.00000000
 H      3   1   2     1.963158346464   113.46229627   352.45390186
 H      3   1   2     2.200801930366   111.26153562   227.37855693
 H      3   1   2     2.002433485263   106.73768560   110.49506675

---------------------
BASIS SET INFORMATION
---------------------
There are 3 groups of distinct atoms

 Group   1 Type O   : 11s6p2d1f contracted to 5s3p2d1f pattern {62111/411/11/1}
 Group   2 Type H   : 5s1p contracted to 3s1p pattern {311/1}
 Group   3 Type C   : 11s6p2d1f contracted to 5s3p2d1f pattern {62111/411/11/1}

Atom   0O    basis set group =>   1
Atom   1H    basis set group =>   2
Atom   2C    basis set group =>   3
Atom   3H    basis set group =>   2
Atom   4H    basis set group =>   2
Atom   5H    basis set group =>   2


           ************************************************************
           *        Program running with 12 parallel MPI-processes    *
           *              working on a common directory               *
           ************************************************************
------------------------------------------------------------------------------
                           ORCA GTO INTEGRAL CALCULATION
------------------------------------------------------------------------------

                         BASIS SET STATISTICS AND STARTUP INFO

 # of primitive gaussian shells          ...   64
 # of primitive gaussian functions       ...  124
 # of contracted shells                  ...   38
 # of contracted basis functions         ...   86
 Highest angular momentum                ...    3
 Maximum contraction depth               ...    6
 Integral package used                   ... LIBINT
 Integral threshhold            Thresh   ...  2.500e-11
 Primitive cut-off              TCut     ...  2.500e-12


------------------------------ INTEGRAL EVALUATION ----------------------------


 * One electron integrals 
 Pre-screening matrix                    ... done
 Shell pair data                         ... done (   0.000 sec)



           ************************************************************
           *        Program running with 12 parallel MPI-processes    *
           *              working on a common directory               *
           ************************************************************
-------------------------------------------------------------------------------
                                 ORCA SCF
-------------------------------------------------------------------------------

------------
SCF SETTINGS
------------
Hamiltonian:
 Ab initio Hamiltonian  Method          .... Hartree-Fock(GTOs)


General Settings:
 Integral files         IntName         .... 62meoh.sphere.gfn2.md.500k.prod1.3meoh.cm.14.dset.1meoh.dset-orca.engrad-mp2.def2tzvp-13000.to.13005
 Hartree-Fock type      HFTyp           .... RHF
 Total Charge           Charge          ....    0
 Multiplicity           Mult            ....    1
 Number of Electrons    NEL             ....   18
 Basis Dimension        Dim             ....   86
 Nuclear Repulsion      ENuc            ....     40.4103472629 Eh

Convergence Acceleration:
 DIIS                   CNVDIIS         .... on
   Start iteration      DIISMaxIt       ....    12
   Startup error        DIISStart       ....  0.200000
   # of expansion vecs  DIISMaxEq       ....     5
   Bias factor          DIISBfac        ....   1.050
   Max. coefficient     DIISMaxC        ....  10.000
 Newton-Raphson         CNVNR           .... off
 SOSCF                  CNVSOSCF        .... on
   Start iteration      SOSCFMaxIt      ....   150
   Startup grad/error   SOSCFStart      ....  0.003300
 Level Shifting         CNVShift        .... on
   Level shift para.    LevelShift      ....    0.2500
   Turn off err/grad.   ShiftErr        ....    0.0010
 Zerner damping         CNVZerner       .... off
 Static damping         CNVDamp         .... on
   Fraction old density DampFac         ....    0.7000
   Max. Damping (<1)    DampMax         ....    0.9800
   Min. Damping (>=0)   DampMin         ....    0.0000
   Turn off err/grad.   DampErr         ....    0.1000
 Fernandez-Rico         CNVRico         .... off

SCF Procedure:
 Maximum # iterations   MaxIter         ....   125
 SCF integral mode      SCFMode         .... Direct
   Integral package                     .... LIBINT
 Reset frequency        DirectResetFreq ....    20
 Integral Threshold     Thresh          ....  2.500e-11 Eh
 Primitive CutOff       TCut            ....  2.500e-12 Eh

Convergence Tolerance:
 Convergence Check Mode ConvCheckMode   .... Total+1el-Energy
 Convergence forced     ConvForced      .... 1
 Energy Change          TolE            ....  1.000e-08 Eh
 1-El. energy change                    ....  1.000e-05 Eh
 Orbital Gradient       TolG            ....  1.000e-05
 Orbital Rotation angle TolX            ....  1.000e-05
 DIIS Error             TolErr          ....  5.000e-07


Diagonalization of the overlap matrix:
Smallest eigenvalue                        ... 1.597e-03
Time for diagonalization                   ...    0.002 sec
Threshold for overlap eigenvalues          ... 1.000e-08
Number of eigenvalues below threshold      ... 0
Time for construction of square roots      ...    0.001 sec
Total time needed                          ...    0.003 sec

-------------------
DFT GRID GENERATION
-------------------

General Integration Accuracy     IntAcc      ...  4.340
Radial Grid Type                 RadialGrid  ... Gauss-Chebyshev
Angular Grid (max. acc.)         AngularGrid ... Lebedev-110
Angular grid pruning method      GridPruning ... 3 (G Style)
Weight generation scheme         WeightScheme... Becke
Basis function cutoff            BFCut       ...    1.0000e-11
Integration weight cutoff        WCut        ...    1.0000e-14
Grids for H and He will be reduced by one unit

# of grid points (after initial pruning)     ...   6548 (   0.0 sec)
# of grid points (after weights+screening)   ...   6373 (   0.0 sec)
nearest neighbour list constructed           ...    0.0 sec
Grid point re-assignment to atoms done       ...    0.0 sec
Grid point division into batches done        ...    0.0 sec
Reduced shell lists constructed in    0.0 sec

Total number of grid points                  ...     6373
Total number of batches                      ...      102
Average number of points per batch           ...       62
Average number of grid points per atom       ...     1062
Average number of shells per batch           ...    29.30 (77.11%)
Average number of basis functions per batch  ...    67.90 (78.95%)
Average number of large shells per batch     ...    25.80 (88.05%)
Average number of large basis fcns per batch ...    62.20 (91.61%)
Maximum spatial batch extension              ...  19.49, 15.41, 17.94 au
Average spatial batch extension              ...   0.47,  0.48,  0.59 au

Time for grid setup =    0.012 sec

------------------------------
INITIAL GUESS: MODEL POTENTIAL
------------------------------
Loading Hartree-Fock densities                     ... done
Calculating cut-offs                               ... done
Setting up the integral package                    ... done
Initializing the effective Hamiltonian             ... done
Starting the Coulomb interaction                   ... done (   0.0 sec)
Reading the grid                                   ... done
Mapping shells                                     ... done
Starting the XC term evaluation                    ... done (   0.0 sec)
Transforming the Hamiltonian                       ... done (   0.0 sec)
Diagonalizing the Hamiltonian                      ... done (   0.0 sec)
Back transforming the eigenvectors                 ... done (   0.0 sec)
Now organizing SCF variables                       ... done
                      ------------------
                      INITIAL GUESS DONE (   0.1 sec)
                      ------------------
--------------
SCF ITERATIONS
--------------
ITER       Energy         Delta-E        Max-DP      RMS-DP      [F,P]     Damp
               ***  Starting incremental Fock matrix formation  ***
  0   -114.9588465667   0.000000000000 0.03701698  0.00137117  0.2869118 0.7000
  1   -115.0043735811  -0.045527014380 0.02463230  0.00101682  0.2169513 0.7000
                               ***Turning on DIIS***
  2   -115.0306287180  -0.026255136858 0.01473078  0.00062367  0.1624612 0.7000
  3   -115.3292215947  -0.298592876700 0.00744817  0.00033870  0.1198590 0.7000
  4   -115.2778524376   0.051369157106 0.01690465  0.00079675  0.0845347 0.0000
  5   -115.0934439549   0.184408482660 0.00208737  0.00010378  0.0057723 0.0000
                      *** Initiating the SOSCF procedure ***
                           *** Shutting down DIIS ***
                      *** Re-Reading the Fockian *** 
                      *** Removing any level shift *** 
ITER      Energy       Delta-E        Grad      Rot      Max-DP    RMS-DP
  6   -115.08539722   0.0080467299  0.000641  0.000641  0.000712  0.000052
               *** Restarting incremental Fock matrix formation ***
  7   -115.08374880   0.0016484232  0.000298  0.000319  0.000431  0.000027
  8   -115.08375070  -0.0000019001  0.000116  0.000186  0.000302  0.000018
  9   -115.08375114  -0.0000004391  0.000028  0.000027  0.000042  0.000003
 10   -115.08375115  -0.0000000128  0.000007  0.000016  0.000017  0.000001
                 **** Energy Check signals convergence ****
              ***Rediagonalizing the Fockian in SOSCF/NRSCF***

               *****************************************************
               *                     SUCCESS                       *
               *           SCF CONVERGED AFTER  11 CYCLES          *
               *****************************************************


----------------
TOTAL SCF ENERGY
----------------

Total Energy       :         -115.08375116 Eh           -3131.58808 eV

Components:
Nuclear Repulsion  :           40.41034726 Eh            1099.62145 eV
Electronic Energy  :         -155.49409842 Eh           -4231.20953 eV
One Electron Energy:         -237.09004971 Eh           -6451.54824 eV
Two Electron Energy:           81.59595129 Eh            2220.33871 eV

Virial components:
Potential Energy   :         -230.08307132 Eh           -6260.87867 eV
Kinetic Energy     :          114.99932016 Eh            3129.29059 eV
Virial Ratio       :            2.00073419


---------------
SCF CONVERGENCE
---------------

  Last Energy change         ...   -1.2337e-09  Tolerance :   1.0000e-08
  Last MAX-Density change    ...    3.0863e-06  Tolerance :   1.0000e-07
  Last RMS-Density change    ...    2.1972e-07  Tolerance :   5.0000e-09
  Last Orbital Gradient      ...    1.8417e-06  Tolerance :   1.0000e-05
  Last Orbital Rotation      ...    5.3257e-06  Tolerance :   1.0000e-05

             **** THE GBW FILE WAS UPDATED (62meoh.sphere.gfn2.md.500k.prod1.3meoh.cm.14.dset.1meoh.dset-orca.engrad-mp2.def2tzvp-13000.to.13005.gbw) ****
             **** DENSITY FILE WAS UPDATED (62meoh.sphere.gfn2.md.500k.prod1.3meoh.cm.14.dset.1meoh.dset-orca.engrad-mp2.def2tzvp-13000.to.13005.scfp) ****
             **** ENERGY FILE WAS UPDATED (62meoh.sphere.gfn2.md.500k.prod1.3meoh.cm.14.dset.1meoh.dset-orca.engrad-mp2.def2tzvp-13000.to.13005.en.tmp) ****
             **** THE GBW FILE WAS UPDATED (62meoh.sphere.gfn2.md.500k.prod1.3meoh.cm.14.dset.1meoh.dset-orca.engrad-mp2.def2tzvp-13000.to.13005.gbw) ****
             **** DENSITY FILE WAS UPDATED (62meoh.sphere.gfn2.md.500k.prod1.3meoh.cm.14.dset.1meoh.dset-orca.engrad-mp2.def2tzvp-13000.to.13005.scfp) ****
----------------
ORBITAL ENERGIES
----------------

  NO   OCC          E(Eh)            E(eV) 
   0   2.0000     -20.549848      -559.1898 
   1   2.0000     -11.267403      -306.6016 
   2   2.0000      -1.352580       -36.8056 
   3   2.0000      -0.929248       -25.2861 
   4   2.0000      -0.696876       -18.9629 
   5   2.0000      -0.616324       -16.7710 
   6   2.0000      -0.591813       -16.1040 
   7   2.0000      -0.501959       -13.6590 
   8   2.0000      -0.443020       -12.0552 
   9   0.0000       0.137412         3.7392 
  10   0.0000       0.175024         4.7627 
  11   0.0000       0.226216         6.1556 
  12   0.0000       0.235803         6.4165 
  13   0.0000       0.263186         7.1617 
  14   0.0000       0.323743         8.8095 
  15   0.0000       0.340051         9.2533 
  16   0.0000       0.463311        12.6073 
  17   0.0000       0.526649        14.3309 
  18   0.0000       0.575030        15.6474 
  19   0.0000       0.607538        16.5320 
  20   0.0000       0.636437        17.3183 
  21   0.0000       0.676365        18.4048 
  22   0.0000       0.681764        18.5517 
  23   0.0000       0.727660        19.8006 
  24   0.0000       0.791954        21.5502 
  25   0.0000       0.872612        23.7450 
  26   0.0000       0.895789        24.3757 
  27   0.0000       0.943166        25.6649 
  28   0.0000       1.093626        29.7591 
  29   0.0000       1.171421        31.8760 
  30   0.0000       1.251385        34.0519 
  31   0.0000       1.536749        41.8171 
  32   0.0000       1.608184        43.7609 
  33   0.0000       1.686396        45.8892 
  34   0.0000       1.784172        48.5498 
  35   0.0000       1.810874        49.2764 
  36   0.0000       1.826165        49.6925 
  37   0.0000       1.864285        50.7298 
  38   0.0000       1.884329        51.2752 
  39   0.0000       1.931404        52.5562 
  40   0.0000       2.136695        58.1424 
  41   0.0000       2.206126        60.0317 
  42   0.0000       2.230096        60.6840 
  43   0.0000       2.251085        61.2551 
  44   0.0000       2.340900        63.6991 
  45   0.0000       2.456205        66.8367 
  46   0.0000       2.546050        69.2815 
  47   0.0000       2.598597        70.7114 
  48   0.0000       2.641564        71.8806 
  49   0.0000       2.647468        72.0413 
  50   0.0000       2.713950        73.8503 
  51   0.0000       2.791017        75.9474 
  52   0.0000       2.851882        77.6036 
  53   0.0000       2.877919        78.3122 
  54   0.0000       3.095709        84.2385 
  55   0.0000       3.131951        85.2247 
  56   0.0000       3.179245        86.5117 
  57   0.0000       3.225144        87.7606 
  58   0.0000       3.367071        91.6227 
  59   0.0000       3.431150        93.3663 
  60   0.0000       3.525627        95.9372 
  61   0.0000       3.641768        99.0975 
  62   0.0000       3.706859       100.8688 
  63   0.0000       3.784145       102.9718 
  64   0.0000       3.857985       104.9811 
  65   0.0000       3.903479       106.2191 
  66   0.0000       3.965620       107.9100 
  67   0.0000       4.265385       116.0670 
  68   0.0000       4.431937       120.5991 
  69   0.0000       4.632063       126.0449 
  70   0.0000       4.779332       130.0522 
  71   0.0000       4.889351       133.0460 
  72   0.0000       5.678333       154.5153 
  73   0.0000       5.734805       156.0520 
  74   0.0000       5.942505       161.7038 
  75   0.0000       6.190977       168.4650 
  76   0.0000       6.228876       169.4963 
  77   0.0000       6.313696       171.8044 
  78   0.0000       6.771587       184.2642 
  79   0.0000       6.935425       188.7225 
  80   0.0000       7.170746       195.1259 
  81   0.0000       7.246658       197.1916 
  82   0.0000       7.465150       203.1371 
  83   0.0000       7.622087       207.4075 
  84   0.0000      23.426015       637.4543 
  85   0.0000      45.158579      1228.8274 

                    ********************************
                    * MULLIKEN POPULATION ANALYSIS *
                    ********************************

-----------------------
MULLIKEN ATOMIC CHARGES
-----------------------
   0 O :   -0.558990
   1 H :    0.332604
   2 C :   -0.064359
   3 H :    0.096708
   4 H :    0.096893
   5 H :    0.097144
Sum of atomic charges:    0.0000000

--------------------------------
MULLIKEN REDUCED ORBITAL CHARGES
--------------------------------
  0 O s       :     3.786669  s :     3.786669
      pz      :     1.857575  p :     4.739334
      px      :     1.339143
      py      :     1.542615
      dz2     :     0.003622  d :     0.031080
      dxz     :     0.004243
      dyz     :     0.005003
      dx2y2   :     0.013336
      dxy     :     0.004877
      f0      :     0.000276  f :     0.001907
      f+1     :     0.000280
      f-1     :     0.000199
      f+2     :     0.000269
      f-2     :     0.000138
      f+3     :     0.000604
      f-3     :     0.000141
  1 H s       :     0.620216  s :     0.620216
      pz      :     0.015726  p :     0.047179
      px      :     0.020237
      py      :     0.011216
  2 C s       :     3.180733  s :     3.180733
      pz      :     1.032824  p :     2.756473
      px      :     0.976502
      py      :     0.747148
      dz2     :     0.008834  d :     0.117837
      dxz     :     0.022936
      dyz     :     0.033610
      dx2y2   :     0.032353
      dxy     :     0.020104
      f0      :     0.001066  f :     0.009315
      f+1     :     0.000446
      f-1     :     0.001726
      f+2     :     0.000845
      f-2     :     0.001858
      f+3     :     0.001449
      f-3     :     0.001926
  3 H s       :     0.881708  s :     0.881708
      pz      :     0.007242  p :     0.021584
      px      :     0.006582
      py      :     0.007760
  4 H s       :     0.884678  s :     0.884678
      pz      :     0.005157  p :     0.018429
      px      :     0.011332
      py      :     0.001940
  5 H s       :     0.880698  s :     0.880698
      pz      :     0.012337  p :     0.022158
      px      :     0.004294
      py      :     0.005527


                     *******************************
                     * LOEWDIN POPULATION ANALYSIS *
                     *******************************

----------------------
LOEWDIN ATOMIC CHARGES
----------------------
   0 O :   -0.110543
   1 H :    0.168813
   2 C :   -0.329710
   3 H :    0.077252
   4 H :    0.107844
   5 H :    0.086345

-------------------------------
LOEWDIN REDUCED ORBITAL CHARGES
-------------------------------
  0 O s       :     3.361703  s :     3.361703
      pz      :     1.769045  p :     4.675898
      px      :     1.343890
      py      :     1.562962
      dz2     :     0.007196  d :     0.068723
      dxz     :     0.007646
      dyz     :     0.011820
      dx2y2   :     0.029005
      dxy     :     0.013056
      f0      :     0.000420  f :     0.004219
      f+1     :     0.000358
      f-1     :     0.000428
      f+2     :     0.000714
      f-2     :     0.000469
      f+3     :     0.001135
      f-3     :     0.000695
  1 H s       :     0.669788  s :     0.669788
      pz      :     0.048583  p :     0.161400
      px      :     0.079378
      py      :     0.033438
  2 C s       :     2.850495  s :     2.850495
      pz      :     1.087635  p :     2.993032
      px      :     1.022007
      py      :     0.883389
      dz2     :     0.037194  d :     0.426356
      dxz     :     0.070068
      dyz     :     0.123268
      dx2y2   :     0.112202
      dxy     :     0.083624
      f0      :     0.007293  f :     0.059828
      f+1     :     0.003314
      f-1     :     0.010441
      f+2     :     0.004543
      f-2     :     0.009687
      f+3     :     0.010435
      f-3     :     0.014115
  3 H s       :     0.854437  s :     0.854437
      pz      :     0.023597  p :     0.068311
      px      :     0.021442
      py      :     0.023272
  4 H s       :     0.843610  s :     0.843610
      pz      :     0.014552  p :     0.048547
      px      :     0.027671
      py      :     0.006324
  5 H s       :     0.849509  s :     0.849509
      pz      :     0.034085  p :     0.064146
      px      :     0.014272
      py      :     0.015789


                      *****************************
                      * MAYER POPULATION ANALYSIS *
                      *****************************

  NA   - Mulliken gross atomic population
  ZA   - Total nuclear charge
  QA   - Mulliken gross atomic charge
  VA   - Mayer's total valence
  BVA  - Mayer's bonded valence
  FA   - Mayer's free valence

  ATOM       NA         ZA         QA         VA         BVA        FA
  0 O      8.5590     8.0000    -0.5590     1.7812     1.7812    -0.0000
  1 H      0.6674     1.0000     0.3326     0.9013     0.9013    -0.0000
  2 C      6.0644     6.0000    -0.0644     3.9079     3.9079     0.0000
  3 H      0.9033     1.0000     0.0967     0.9591     0.9591     0.0000
  4 H      0.9031     1.0000     0.0969     0.9622     0.9622     0.0000
  5 H      0.9029     1.0000     0.0971     0.9566     0.9566     0.0000

  Mayer bond orders larger than 0.100000
B(  0-O ,  1-H ) :   0.8875 B(  0-O ,  2-C ) :   0.9304 B(  2-C ,  3-H ) :   0.9889 
B(  2-C ,  4-H ) :   0.9854 B(  2-C ,  5-H ) :   0.9922 

-------
TIMINGS
-------

Total SCF time: 0 days 0 hours 0 min 1 sec 

Total time                  ....       1.470 sec
Sum of individual times     ....       1.303 sec  ( 88.6%)

Fock matrix formation       ....       1.170 sec  ( 79.6%)
Diagonalization             ....       0.008 sec  (  0.5%)
Density matrix formation    ....       0.002 sec  (  0.1%)
Population analysis         ....       0.012 sec  (  0.8%)
Initial guess               ....       0.086 sec  (  5.9%)
Orbital Transformation      ....       0.000 sec  (  0.0%)
Orbital Orthonormalization  ....       0.000 sec  (  0.0%)
DIIS solution               ....       0.004 sec  (  0.3%)
SOSCF solution              ....       0.008 sec  (  0.5%)


           ************************************************************
           *        Program running with 12 parallel MPI-processes    *
           *              working on a common directory               *
           ************************************************************

------------------------------------------------------------------------------
                                ORCA  MP2 
------------------------------------------------------------------------------

Freezing NCore=4 chemical core electrons
MP2 will be done in the AO integral direct mode
The Q1-step will be done using symmetric double matrices
Dimension of the basis                    ...   86
Memory devoted for MP2                    ... 8000 MB   
Memory needed for all in one shot         ...    3 MB
Number of MOs that can be treated together... 3258      
MP2 density construction                  ... relaxed
The MP2 gradient is requested => amplitudes will be stored on disk
Total number of MOs              ...    7
Number of MOs treated per batch  ...    1 
Number of batches necessary      ...    1 
OPERATORS   0/  0 PASS   0
-----------------------------------------------
 MP2 CORRELATION ENERGY   :     -0.414795448 Eh
-----------------------------------------------


---------------------
MP2 DENSITY FORMATION
---------------------

Completing the external part of the density      ... done
Storing the unrelaxed density                    ... done

Calculating G(D)                                 ... done
Completing the Lagrangian                        ... done
Solving the Z-vector equations                   ... 

------------------------------------------------------------------------------
                           ORCA CP-SCF CALCULATION
------------------------------------------------------------------------------

Input orbitals are from        ... 62meoh.sphere.gfn2.md.500k.prod1.3meoh.cm.14.dset.1meoh.dset-orca.engrad-mp2.def2tzvp-13000.to.13005.gbw
Input Perturbation             ... 62meoh.sphere.gfn2.md.500k.prod1.3meoh.cm.14.dset.1meoh.dset-orca.engrad-mp2.def2tzvp-13000.to.13005.pin.tmp
Wavefunction output            ... 62meoh.sphere.gfn2.md.500k.prod1.3meoh.cm.14.dset.1meoh.dset-orca.engrad-mp2.def2tzvp-13000.to.13005.pout.tmp
Perturbation mode              ... Real perturbation (singlet)
Solver                         ... POPLE
Max. number of iterations      ... 128
Convergence tolerance          ... 1.000e-08
Integral handling              ... Direct
Number of perturbations        ... 1
Number of operators            ... 1
Orbital ranges used for CP-SCF:
 Operator 0:  Orbitals   0...  8  to   9... 85
Variables per vector in CP-SCF ... 693
Number of vectors sought       ... 1
     CP-SCF ITERATION   0: 
     CP-SCF ITERATION   1:      0.000106689841
     CP-SCF ITERATION   2:      0.000004484398
     CP-SCF ITERATION   3:      0.000000630965
     CP-SCF ITERATION   4:      0.000000043162
     CP-SCF ITERATION   5:      0.000000001413
                                                 ... done
Finalizing the relaxed density                   ... done
Transforming P to the AO basis                   ... done
Storing the relaxed density                      ... done

------------------------------------
ENERGY WEIGHTED DENSITY FINALIZATION
------------------------------------

Gathering the parts of the W-matrix              ...                                                      done
Forming the Z-density                            ... done
Transforming Z to the AO basis                   ... done
Calculating G(Z)                                 ... done
Finalizing the W-matrix                          ...                                                      done
Transforming W to the AO basis and storing       ... done

                *********************************************
                * UNRELAXED MP2 DENSITY POPULATION ANALYSIS *
                *********************************************

------------------------------------------------------------------------------
                           ORCA POPULATION ANALYSIS
------------------------------------------------------------------------------
Input electron density              ... 62meoh.sphere.gfn2.md.500k.prod1.3meoh.cm.14.dset.1meoh.dset-orca.engrad-mp2.def2tzvp-13000.to.13005.pmp2ur
BaseName (.gbw .S,...)              ... 62meoh.sphere.gfn2.md.500k.prod1.3meoh.cm.14.dset.1meoh.dset-orca.engrad-mp2.def2tzvp-13000.to.13005

                    ********************************
                    * MULLIKEN POPULATION ANALYSIS *
                    ********************************

-----------------------
MULLIKEN ATOMIC CHARGES
-----------------------
   0 O :   -0.548682
   1 H :    0.330457
   2 C :   -0.080066
   3 H :    0.099177
   4 H :    0.099385
   5 H :    0.099728
Sum of atomic charges:    0.0000000

--------------------------------
MULLIKEN REDUCED ORBITAL CHARGES
--------------------------------
  0 O s       :     3.781695  s :     3.781695
      pz      :     1.843928  p :     4.703763
      px      :     1.330170
      py      :     1.529665
      dz2     :     0.009267  d :     0.058644
      dxz     :     0.009868
      dyz     :     0.010577
      dx2y2   :     0.018559
      dxy     :     0.010373
      f0      :     0.000646  f :     0.004580
      f+1     :     0.000650
      f-1     :     0.000576
      f+2     :     0.000656
      f-2     :     0.000518
      f+3     :     0.000987
      f-3     :     0.000547
  1 H s       :     0.620711  s :     0.620711
      pz      :     0.016575  p :     0.048831
      px      :     0.020218
      py      :     0.012038
  2 C s       :     3.178943  s :     3.178943
      pz      :     1.028327  p :     2.750055
      px      :     0.973584
      py      :     0.748144
      dz2     :     0.013479  d :     0.138427
      dxz     :     0.027482
      dyz     :     0.037421
      dx2y2   :     0.036497
      dxy     :     0.023549
      f0      :     0.001549  f :     0.012641
      f+1     :     0.000971
      f-1     :     0.002159
      f+2     :     0.001366
      f-2     :     0.002326
      f+3     :     0.001850
      f-3     :     0.002421
  3 H s       :     0.876039  s :     0.876039
      pz      :     0.008322  p :     0.024784
      px      :     0.007678
      py      :     0.008784
  4 H s       :     0.879119  s :     0.879119
      pz      :     0.006215  p :     0.021496
      px      :     0.012225
      py      :     0.003056
  5 H s       :     0.874883  s :     0.874883
      pz      :     0.013266  p :     0.025389
      px      :     0.005446
      py      :     0.006676


                     *******************************
                     * LOEWDIN POPULATION ANALYSIS *
                     *******************************

----------------------
LOEWDIN ATOMIC CHARGES
----------------------
   0 O :   -0.103684
   1 H :    0.167586
   2 C :   -0.339906
   3 H :    0.078795
   4 H :    0.109381
   5 H :    0.087828

-------------------------------
LOEWDIN REDUCED ORBITAL CHARGES
-------------------------------
  0 O s       :     3.358560  s :     3.358560
      pz      :     1.756097  p :     4.640486
      px      :     1.334602
      py      :     1.549788
      dz2     :     0.013196  d :     0.097481
      dxz     :     0.013309
      dyz     :     0.017510
      dx2y2   :     0.034710
      dxy     :     0.018756
      f0      :     0.000824  f :     0.007156
      f+1     :     0.000756
      f-1     :     0.000829
      f+2     :     0.001129
      f-2     :     0.000869
      f+3     :     0.001630
      f-3     :     0.001118
  1 H s       :     0.667700  s :     0.667700
      pz      :     0.049427  p :     0.164713
      px      :     0.081083
      py      :     0.034204
  2 C s       :     2.849321  s :     2.849321
      pz      :     1.081254  p :     2.979049
      px      :     1.016787
      py      :     0.881007
      dz2     :     0.042057  d :     0.446877
      dxz     :     0.074664
      dyz     :     0.126922
      dx2y2   :     0.115866
      dxy     :     0.087368
      f0      :     0.007931  f :     0.064660
      f+1     :     0.003927
      f-1     :     0.011119
      f+2     :     0.005305
      f-2     :     0.010441
      f+3     :     0.011337
      f-3     :     0.014600
  3 H s       :     0.847639  s :     0.847639
      pz      :     0.025213  p :     0.073566
      px      :     0.023137
      py      :     0.025216
  4 H s       :     0.837125  s :     0.837125
      pz      :     0.016035  p :     0.053495
      px      :     0.029846
      py      :     0.007614
  5 H s       :     0.842774  s :     0.842774
      pz      :     0.036267  p :     0.069398
      px      :     0.015627
      py      :     0.017503


                      *****************************
                      * MAYER POPULATION ANALYSIS *
                      *****************************

  NA   - Mulliken gross atomic population
  ZA   - Total nuclear charge
  QA   - Mulliken gross atomic charge
  VA   - Mayer's total valence
  BVA  - Mayer's bonded valence
  FA   - Mayer's free valence

  ATOM       NA         ZA         QA         VA         BVA        FA
  0 O      8.5487     8.0000    -0.5487     2.0798     1.6820     0.3978
  1 H      0.6695     1.0000     0.3305     0.9073     0.8585     0.0488
  2 C      6.0801     6.0000    -0.0801     4.0118     3.7378     0.2739
  3 H      0.9008     1.0000     0.0992     0.9690     0.9233     0.0457
  4 H      0.9006     1.0000     0.0994     0.9716     0.9202     0.0514
  5 H      0.9003     1.0000     0.0997     0.9663     0.9197     0.0466

  Mayer bond orders larger than 0.100000
B(  0-O ,  1-H ) :   0.8459 B(  0-O ,  2-C ) :   0.8740 B(  2-C ,  3-H ) :   0.9538 
B(  2-C ,  4-H ) :   0.9442 B(  2-C ,  5-H ) :   0.9557 


                *******************************************
                * RELAXED MP2 DENSITY POPULATION ANALYSIS *
                *******************************************

------------------------------------------------------------------------------
                           ORCA POPULATION ANALYSIS
------------------------------------------------------------------------------
Input electron density              ... 62meoh.sphere.gfn2.md.500k.prod1.3meoh.cm.14.dset.1meoh.dset-orca.engrad-mp2.def2tzvp-13000.to.13005.pmp2re
BaseName (.gbw .S,...)              ... 62meoh.sphere.gfn2.md.500k.prod1.3meoh.cm.14.dset.1meoh.dset-orca.engrad-mp2.def2tzvp-13000.to.13005

                    ********************************
                    * MULLIKEN POPULATION ANALYSIS *
                    ********************************

-----------------------
MULLIKEN ATOMIC CHARGES
-----------------------
   0 O :   -0.509487
   1 H :    0.323730
   2 C :   -0.164273
   3 H :    0.115268
   4 H :    0.116295
   5 H :    0.118468
Sum of atomic charges:   -0.0000000

--------------------------------
MULLIKEN REDUCED ORBITAL CHARGES
--------------------------------
  0 O s       :     3.780938  s :     3.780938
      pz      :     1.830997  p :     4.667273
      px      :     1.316183
      py      :     1.520093
      dz2     :     0.009118  d :     0.056762
      dxz     :     0.009616
      dyz     :     0.010661
      dx2y2   :     0.017363
      dxy     :     0.010004
      f0      :     0.000638  f :     0.004514
      f+1     :     0.000642
      f-1     :     0.000574
      f+2     :     0.000644
      f-2     :     0.000514
      f+3     :     0.000945
      f-3     :     0.000558
  1 H s       :     0.626706  s :     0.626706
      pz      :     0.017587  p :     0.049564
      px      :     0.019274
      py      :     0.012703
  2 C s       :     3.200705  s :     3.200705
      pz      :     1.054333  p :     2.820033
      px      :     0.998990
      py      :     0.766710
      dz2     :     0.012052  d :     0.131369
      dxz     :     0.025496
      dyz     :     0.036141
      dx2y2   :     0.037550
      dxy     :     0.020130
      f0      :     0.001509  f :     0.012166
      f+1     :     0.000935
      f-1     :     0.002064
      f+2     :     0.001338
      f-2     :     0.002219
      f+3     :     0.001741
      f-3     :     0.002360
  3 H s       :     0.861046  s :     0.861046
      pz      :     0.008103  p :     0.023686
      px      :     0.007417
      py      :     0.008166
  4 H s       :     0.863197  s :     0.863197
      pz      :     0.006135  p :     0.020508
      px      :     0.011178
      py      :     0.003195
  5 H s       :     0.857193  s :     0.857193
      pz      :     0.012072  p :     0.024339
      px      :     0.005654
      py      :     0.006613


                     *******************************
                     * LOEWDIN POPULATION ANALYSIS *
                     *******************************

----------------------
LOEWDIN ATOMIC CHARGES
----------------------
   0 O :   -0.091222
   1 H :    0.169947
   2 C :   -0.374100
   3 H :    0.084254
   4 H :    0.117624
   5 H :    0.093497

-------------------------------
LOEWDIN REDUCED ORBITAL CHARGES
-------------------------------
  0 O s       :     3.360951  s :     3.360951
      pz      :     1.747489  p :     4.625841
      px      :     1.336681
      py      :     1.541671
      dz2     :     0.013209  d :     0.097164
      dxz     :     0.013291
      dyz     :     0.017783
      dx2y2   :     0.034242
      dxy     :     0.018639
      f0      :     0.000834  f :     0.007266
      f+1     :     0.000768
      f-1     :     0.000848
      f+2     :     0.001131
      f-2     :     0.000881
      f+3     :     0.001657
      f-3     :     0.001147
  1 H s       :     0.664835  s :     0.664835
      pz      :     0.050399  p :     0.165218
      px      :     0.080098
      py      :     0.034721
  2 C s       :     2.854991  s :     2.854991
      pz      :     1.096004  p :     3.018847
      px      :     1.031422
      py      :     0.891421
      dz2     :     0.039532  d :     0.437233
      dxz     :     0.072848
      dyz     :     0.125845
      dx2y2   :     0.116220
      dxy     :     0.082789
      f0      :     0.007752  f :     0.063029
      f+1     :     0.003849
      f-1     :     0.010829
      f+2     :     0.005153
      f-2     :     0.010091
      f+3     :     0.011119
      f-3     :     0.014236
  3 H s       :     0.841296  s :     0.841296
      pz      :     0.025530  p :     0.074449
      px      :     0.023378
      py      :     0.025541
  4 H s       :     0.828470  s :     0.828470
      pz      :     0.016328  p :     0.053906
      px      :     0.029597
      py      :     0.007981
  5 H s       :     0.836344  s :     0.836344
      pz      :     0.035961  p :     0.070159
      px      :     0.016212
      py      :     0.017986


                      *****************************
                      * MAYER POPULATION ANALYSIS *
                      *****************************

  NA   - Mulliken gross atomic population
  ZA   - Total nuclear charge
  QA   - Mulliken gross atomic charge
  VA   - Mayer's total valence
  BVA  - Mayer's bonded valence
  FA   - Mayer's free valence

  ATOM       NA         ZA         QA         VA         BVA        FA
  0 O      8.5095     8.0000    -0.5095     2.1375     1.7458     0.3917
  1 H      0.6763     1.0000     0.3237     0.9102     0.8613     0.0489
  2 C      6.1643     6.0000    -0.1643     4.0405     3.7689     0.2717
  3 H      0.8847     1.0000     0.1153     0.9644     0.9193     0.0451
  4 H      0.8837     1.0000     0.1163     0.9619     0.9112     0.0507
  5 H      0.8815     1.0000     0.1185     0.9554     0.9094     0.0460

  Mayer bond orders larger than 0.100000
B(  0-O ,  1-H ) :   0.8471 B(  0-O ,  2-C ) :   0.9311 B(  2-C ,  3-H ) :   0.9473 
B(  2-C ,  4-H ) :   0.9327 B(  2-C ,  5-H ) :   0.9466 


----------------------------------
MP2 DERIVATIVE INTEGRAL GENERATION
----------------------------------


Input Wavefunction Amplitudes       ... 62meoh.sphere.gfn2.md.500k.prod1.3meoh.cm.14.dset.1meoh.dset-orca.engrad-mp2.def2tzvp-13000.to.13005.mp2tsaa.tmp
Input Correlated Electron Density   ... 62meoh.sphere.gfn2.md.500k.prod1.3meoh.cm.14.dset.1meoh.dset-orca.engrad-mp2.def2tzvp-13000.to.13005.pmp2re
Input Energy Weighted Density       ... 62meoh.sphere.gfn2.md.500k.prod1.3meoh.cm.14.dset.1meoh.dset-orca.engrad-mp2.def2tzvp-13000.to.13005.wmp2.tmp
Input SCF Electron Density          ... 62meoh.sphere.gfn2.md.500k.prod1.3meoh.cm.14.dset.1meoh.dset-orca.engrad-mp2.def2tzvp-13000.to.13005.scfp

One-Electron Terms    ...
                        ... One-Electron Terms done
Prescreening matrices              ... done

Batch handling in the gradient evaluation:
Memory available                      ... 8000.0 MB
Memory per occupied orbital in Q2     ...    0.4 MB
Memory per occupied orbital in Q3     ...    0.0 MB
Total memory requirement per |i>      ...    0.4 MB
Max. Number of orbitals possible      ...  18729
Number of orbitals treated per batch  ...      7
Number of batches to be done          ...      1
Batch   0: i=    2 ...     8

---------------------------------------
MP2 TOTAL ENERGY:     -115.498546603 Eh
---------------------------------------

The final MP2 gradient
  0:  -0.00496806  -0.01464901  -0.00058304
  1:  -0.00146770   0.00818014  -0.00397504
  2:  -0.04249765  -0.03200940  -0.00328194
  3:   0.02107372   0.02183728  -0.02621170
  4:   0.03704804   0.00324781   0.01562415
  5:  -0.00918835   0.01339318   0.01842757

-----------------------------------
NORM OF THE MP2 GRADIENT:  0.083693
-----------------------------------

-------------------------   --------------------
FINAL SINGLE POINT ENERGY      -115.498546602728
-------------------------   --------------------


                            ***************************************
                            *     ORCA property calculations      *
                            ***************************************

                                    ---------------------
                                    Active property flags
                                    ---------------------
   (+) Dipole Moment


------------------------------------------------------------------------------
                       ORCA ELECTRIC PROPERTIES CALCULATION
------------------------------------------------------------------------------

Dipole Moment Calculation                       ... on
Quadrupole Moment Calculation                   ... off
Polarizability Calculation                      ... off
GBWName                                         ... 62meoh.sphere.gfn2.md.500k.prod1.3meoh.cm.14.dset.1meoh.dset-orca.engrad-mp2.def2tzvp-13000.to.13005.gbw
Electron density file                           ... 62meoh.sphere.gfn2.md.500k.prod1.3meoh.cm.14.dset.1meoh.dset-orca.engrad-mp2.def2tzvp-13000.to.13005.scfp
The origin for moment calculation is the CENTER OF MASS  = ( 0.000034, -0.000072  0.000020)

-------------
DIPOLE MOMENT
-------------
                                X             Y             Z
Electronic contribution:     -0.83449       1.46874      -0.37446
Nuclear contribution   :      0.44710      -2.02474       0.67380
                        -----------------------------------------
Total Dipole Moment    :     -0.38739      -0.55600       0.29934
                        -----------------------------------------
Magnitude (a.u.)       :      0.74082
Magnitude (Debye)      :      1.88301



--------------------
Rotational spectrum 
--------------------
 
Rotational constants in cm-1:     4.404026     0.825722     0.797051 
Rotational constants in MHz : 132029.380355 24754.531588 23894.990602 

 Dipole components along the rotational axes: 
x,y,z [a.u.] :     0.323074    -0.660637     0.089417 
x,y,z [Debye]:     0.821189    -1.679205     0.227281 

 

                         *** MP2 UNRELAXED DENSITY ***

------------------------------------------------------------------------------
                       ORCA ELECTRIC PROPERTIES CALCULATION
------------------------------------------------------------------------------

Dipole Moment Calculation                       ... on
Quadrupole Moment Calculation                   ... off
Polarizability Calculation                      ... off
GBWName                                         ... 62meoh.sphere.gfn2.md.500k.prod1.3meoh.cm.14.dset.1meoh.dset-orca.engrad-mp2.def2tzvp-13000.to.13005.gbw
Electron density file                           ... 62meoh.sphere.gfn2.md.500k.prod1.3meoh.cm.14.dset.1meoh.dset-orca.engrad-mp2.def2tzvp-13000.to.13005.pmp2ur
The origin for moment calculation is the CENTER OF MASS  = ( 0.000034, -0.000072  0.000020)

-------------
DIPOLE MOMENT
-------------
                                X             Y             Z
Electronic contribution:     -0.83253       1.48076      -0.37995
Nuclear contribution   :      0.44710      -2.02474       0.67380
                        -----------------------------------------
Total Dipole Moment    :     -0.38543      -0.54398       0.29385
                        -----------------------------------------
Magnitude (a.u.)       :      0.72858
Magnitude (Debye)      :      1.85189



--------------------
Rotational spectrum 
--------------------
 
Rotational constants in cm-1:     4.404026     0.825722     0.797051 
Rotational constants in MHz : 132029.380355 24754.531588 23894.990602 

 Dipole components along the rotational axes: 
x,y,z [a.u.] :     0.312973    -0.652038     0.087845 
x,y,z [Debye]:     0.795513    -1.657349     0.223283 

 

                           *** MP2 RELAXED DENSITY ***

------------------------------------------------------------------------------
                       ORCA ELECTRIC PROPERTIES CALCULATION
------------------------------------------------------------------------------

Dipole Moment Calculation                       ... on
Quadrupole Moment Calculation                   ... off
Polarizability Calculation                      ... off
GBWName                                         ... 62meoh.sphere.gfn2.md.500k.prod1.3meoh.cm.14.dset.1meoh.dset-orca.engrad-mp2.def2tzvp-13000.to.13005.gbw
Electron density file                           ... 62meoh.sphere.gfn2.md.500k.prod1.3meoh.cm.14.dset.1meoh.dset-orca.engrad-mp2.def2tzvp-13000.to.13005.pmp2re
The origin for moment calculation is the CENTER OF MASS  = ( 0.000034, -0.000072  0.000020)

-------------
DIPOLE MOMENT
-------------
                                X             Y             Z
Electronic contribution:     -0.82620       1.50251      -0.38404
Nuclear contribution   :      0.44710      -2.02474       0.67380
                        -----------------------------------------
Total Dipole Moment    :     -0.37909      -0.52223       0.28975
                        -----------------------------------------
Magnitude (a.u.)       :      0.70739
Magnitude (Debye)      :      1.79803



--------------------
Rotational spectrum 
--------------------
 
Rotational constants in cm-1:     4.404026     0.825722     0.797051 
Rotational constants in MHz : 132029.380355 24754.531588 23894.990602 

 Dipole components along the rotational axes: 
x,y,z [a.u.] :     0.297329    -0.635409     0.090805 
x,y,z [Debye]:     0.755751    -1.615080     0.230808 

 

Timings for individual modules:

Sum of individual times         ...        5.686 sec (=   0.095 min)
GTO integral calculation        ...        0.946 sec (=   0.016 min)  16.6 %
SCF iterations                  ...        2.146 sec (=   0.036 min)  37.7 %
MP2 module                      ...        2.594 sec (=   0.043 min)  45.6 %


                 $$$$$$$$$$$$$$$$  JOB NUMBER  2 $$$$$$$$$$$$$$


                     *******************************
                     * Energy+Gradient Calculation *
                     *******************************

---------------------------------
CARTESIAN COORDINATES (ANGSTROEM)
---------------------------------
  O     -0.501094    0.382030    0.264950
  H     -1.324312    0.039841   -0.303979
  C      0.559184   -0.377850   -0.242989
  H      0.604037   -0.569222   -1.363880
  H      0.599510   -1.302791    0.323610
  H      1.412077    0.270138    0.033777

----------------------------
CARTESIAN COORDINATES (A.U.)
----------------------------
  NO LB      ZA    FRAG     MASS         X           Y           Z
   0 O     8.0000    0    15.999   -0.946930    0.721932    0.500683
   1 H     1.0000    0     1.008   -2.502587    0.075288   -0.574437
   2 C     6.0000    0    12.011    1.056704   -0.714033   -0.459182
   3 H     1.0000    0     1.008    1.141464   -1.075674   -2.577360
   4 H     1.0000    0     1.008    1.132910   -2.461919    0.611535
   5 H     1.0000    0     1.008    2.668439    0.510487    0.063829

--------------------------------
INTERNAL COORDINATES (ANGSTROEM)
--------------------------------
 O      0   0   0     0.000000000000     0.00000000     0.00000000
 H      1   0   0     1.057573777967     0.00000000     0.00000000
 C      1   2   0     1.399859819807   102.63508361     0.00000000
 H      3   1   2     1.137995157893   118.58969366    39.79903745
 H      3   1   2     1.085438611017   107.53531227   271.96415545
 H      3   1   2     1.106307020222   100.09039690   157.23830981

---------------------------
INTERNAL COORDINATES (A.U.)
---------------------------
 O      0   0   0     0.000000000000     0.00000000     0.00000000
 H      1   0   0     1.998524806774     0.00000000     0.00000000
 C      1   2   0     2.645351685316   102.63508361     0.00000000
 H      3   1   2     2.150499190146   118.58969366    39.79903745
 H      3   1   2     2.051181710006   107.53531227   271.96415545
 H      3   1   2     2.090617288255   100.09039690   157.23830981

---------------------
BASIS SET INFORMATION
---------------------
There are 3 groups of distinct atoms

 Group   1 Type O   : 11s6p2d1f contracted to 5s3p2d1f pattern {62111/411/11/1}
 Group   2 Type H   : 5s1p contracted to 3s1p pattern {311/1}
 Group   3 Type C   : 11s6p2d1f contracted to 5s3p2d1f pattern {62111/411/11/1}

Atom   0O    basis set group =>   1
Atom   1H    basis set group =>   2
Atom   2C    basis set group =>   3
Atom   3H    basis set group =>   2
Atom   4H    basis set group =>   2
Atom   5H    basis set group =>   2


           ************************************************************
           *        Program running with 12 parallel MPI-processes    *
           *              working on a common directory               *
           ************************************************************
------------------------------------------------------------------------------
                           ORCA GTO INTEGRAL CALCULATION
------------------------------------------------------------------------------

                         BASIS SET STATISTICS AND STARTUP INFO

 # of primitive gaussian shells          ...   64
 # of primitive gaussian functions       ...  124
 # of contracted shells                  ...   38
 # of contracted basis functions         ...   86
 Highest angular momentum                ...    3
 Maximum contraction depth               ...    6
 Integral package used                   ... LIBINT
 Integral threshhold            Thresh   ...  2.500e-11
 Primitive cut-off              TCut     ...  2.500e-12


------------------------------ INTEGRAL EVALUATION ----------------------------


 * One electron integrals 
 Pre-screening matrix                    ... done
 Shell pair data                         ... done (   0.000 sec)



           ************************************************************
           *        Program running with 12 parallel MPI-processes    *
           *              working on a common directory               *
           ************************************************************
-------------------------------------------------------------------------------
                                 ORCA SCF
-------------------------------------------------------------------------------

------------
SCF SETTINGS
------------
Hamiltonian:
 Ab initio Hamiltonian  Method          .... Hartree-Fock(GTOs)


General Settings:
 Integral files         IntName         .... 62meoh.sphere.gfn2.md.500k.prod1.3meoh.cm.14.dset.1meoh.dset-orca.engrad-mp2.def2tzvp-13000.to.13005_job2
 Hartree-Fock type      HFTyp           .... RHF
 Total Charge           Charge          ....    0
 Multiplicity           Mult            ....    1
 Number of Electrons    NEL             ....   18
 Basis Dimension        Dim             ....   86
 Nuclear Repulsion      ENuc            ....     40.1246846227 Eh

Convergence Acceleration:
 DIIS                   CNVDIIS         .... on
   Start iteration      DIISMaxIt       ....    12
   Startup error        DIISStart       ....  0.200000
   # of expansion vecs  DIISMaxEq       ....     5
   Bias factor          DIISBfac        ....   1.050
   Max. coefficient     DIISMaxC        ....  10.000
 Newton-Raphson         CNVNR           .... off
 SOSCF                  CNVSOSCF        .... on
   Start iteration      SOSCFMaxIt      ....   150
   Startup grad/error   SOSCFStart      ....  0.003300
 Level Shifting         CNVShift        .... on
   Level shift para.    LevelShift      ....    0.2500
   Turn off err/grad.   ShiftErr        ....    0.0010
 Zerner damping         CNVZerner       .... off
 Static damping         CNVDamp         .... on
   Fraction old density DampFac         ....    0.7000
   Max. Damping (<1)    DampMax         ....    0.9800
   Min. Damping (>=0)   DampMin         ....    0.0000
   Turn off err/grad.   DampErr         ....    0.1000
 Fernandez-Rico         CNVRico         .... off

SCF Procedure:
 Maximum # iterations   MaxIter         ....   125
 SCF integral mode      SCFMode         .... Direct
   Integral package                     .... LIBINT
 Reset frequency        DirectResetFreq ....    20
 Integral Threshold     Thresh          ....  2.500e-11 Eh
 Primitive CutOff       TCut            ....  2.500e-12 Eh

Convergence Tolerance:
 Convergence Check Mode ConvCheckMode   .... Total+1el-Energy
 Convergence forced     ConvForced      .... 1
 Energy Change          TolE            ....  1.000e-08 Eh
 1-El. energy change                    ....  1.000e-05 Eh
 Orbital Gradient       TolG            ....  1.000e-05
 Orbital Rotation angle TolX            ....  1.000e-05
 DIIS Error             TolErr          ....  5.000e-07


Diagonalization of the overlap matrix:
Smallest eigenvalue                        ... 1.734e-03
Time for diagonalization                   ...    0.002 sec
Threshold for overlap eigenvalues          ... 1.000e-08
Number of eigenvalues below threshold      ... 0
Time for construction of square roots      ...    0.002 sec
Total time needed                          ...    0.004 sec

---------------------
INITIAL GUESS: MOREAD
---------------------
Guess MOs are being read from file: 62meoh.sphere.gfn2.md.500k.prod1.3meoh.cm.14.dset.1meoh.dset-orca.engrad-mp2.def2tzvp-13000.to.13005.gbw
Input geometry compatible with but different from current geometry
Input basis set matches current basis set (good)
MOs were renormalized
MOs were reorthogonalized (Cholesky)
                      ------------------
                      INITIAL GUESS DONE (   0.0 sec)
                      ------------------
--------------
SCF ITERATIONS
--------------
ITER       Energy         Delta-E        Max-DP      RMS-DP      [F,P]     Damp
               ***  Starting incremental Fock matrix formation  ***
  0   -113.3989747233   0.000000000000 0.08828380  0.00412051  0.6304757 0.7000
  1   -113.7555056281  -0.356530904837 0.07954183  0.00373764  0.5334214 0.7000
  2   -114.0587496811  -0.303244052962 0.06241321  0.00301428  0.4362264 0.7000
  3   -114.3033882528  -0.244638571666 0.04740577  0.00238263  0.3540389 0.7000
  4   -114.4956715514  -0.192283298670 0.03759691  0.00187924  0.2864450 0.7000
  5   -114.6438002318  -0.148128680406 0.03027670  0.00148596  0.2312645 0.7000
                               ***Turning on DIIS***
  6   -114.7561671281  -0.112366896289 0.02426928  0.00118042  0.1864116 0.7000
  7   -114.8459501908  -0.089783062694 0.02250690  0.00108260  0.1500819 0.7000
  8   -114.9015664953  -0.055616304457 0.01973828  0.00097358  0.1155729 0.7000
  9   -114.9462581577  -0.044691662402 0.05146508  0.00265324  0.0848607 0.0000
 10   -115.0722086293  -0.125950471645 0.00479198  0.00031036  0.0053615 0.0000
                      *** Initiating the SOSCF procedure ***
                           *** Shutting down DIIS ***
                      *** Re-Reading the Fockian *** 
                      *** Removing any level shift *** 
ITER      Energy       Delta-E        Grad      Rot      Max-DP    RMS-DP
 11   -115.07407205  -0.0018634206  0.002153  0.002153  0.002685  0.000182
               *** Restarting incremental Fock matrix formation ***
 12   -115.07242265   0.0016493995  0.000713  0.001148  0.001261  0.000085
 13   -115.07243324  -0.0000105889  0.000301  0.000946  0.001047  0.000061
 14   -115.07243642  -0.0000031837  0.000049  0.000099  0.000117  0.000007
 15   -115.07243649  -0.0000000636  0.000020  0.000062  0.000080  0.000005
 16   -115.07243650  -0.0000000141  0.000004  0.000009  0.000008  0.000000
 17   -115.07243650  -0.0000000008  0.000003  0.000004  0.000005  0.000000
                 **** Energy Check signals convergence ****
              ***Rediagonalizing the Fockian in SOSCF/NRSCF***

               *****************************************************
               *                     SUCCESS                       *
               *           SCF CONVERGED AFTER  18 CYCLES          *
               *****************************************************


----------------
TOTAL SCF ENERGY
----------------

Total Energy       :         -115.07243650 Eh           -3131.28019 eV

Components:
Nuclear Repulsion  :           40.12468462 Eh            1091.84818 eV
Electronic Energy  :         -155.19712112 Eh           -4223.12837 eV
One Electron Energy:         -236.56260644 Eh           -6437.19578 eV
Two Electron Energy:           81.36548531 Eh            2214.06742 eV

Virial components:
Potential Energy   :         -229.87970189 Eh           -6255.34470 eV
Kinetic Energy     :          114.80726539 Eh            3124.06452 eV
Virial Ratio       :            2.00230971


---------------
SCF CONVERGENCE
---------------

  Last Energy change         ...   -1.9295e-10  Tolerance :   1.0000e-08
  Last MAX-Density change    ...    2.1472e-06  Tolerance :   1.0000e-07
  Last RMS-Density change    ...    1.2692e-07  Tolerance :   5.0000e-09
  Last Orbital Gradient      ...    5.4496e-07  Tolerance :   1.0000e-05
  Last Orbital Rotation      ...    1.1383e-06  Tolerance :   1.0000e-05

             **** THE GBW FILE WAS UPDATED (62meoh.sphere.gfn2.md.500k.prod1.3meoh.cm.14.dset.1meoh.dset-orca.engrad-mp2.def2tzvp-13000.to.13005_job2.gbw) ****
             **** DENSITY FILE WAS UPDATED (62meoh.sphere.gfn2.md.500k.prod1.3meoh.cm.14.dset.1meoh.dset-orca.engrad-mp2.def2tzvp-13000.to.13005_job2.scfp) ****
             **** ENERGY FILE WAS UPDATED (62meoh.sphere.gfn2.md.500k.prod1.3meoh.cm.14.dset.1meoh.dset-orca.engrad-mp2.def2tzvp-13000.to.13005_job2.en.tmp) ****
             **** THE GBW FILE WAS UPDATED (62meoh.sphere.gfn2.md.500k.prod1.3meoh.cm.14.dset.1meoh.dset-orca.engrad-mp2.def2tzvp-13000.to.13005_job2.gbw) ****
             **** DENSITY FILE WAS UPDATED (62meoh.sphere.gfn2.md.500k.prod1.3meoh.cm.14.dset.1meoh.dset-orca.engrad-mp2.def2tzvp-13000.to.13005_job2.scfp) ****
----------------
ORBITAL ENERGIES
----------------

  NO   OCC          E(Eh)            E(eV) 
   0   2.0000     -20.565070      -559.6040 
   1   2.0000     -11.272180      -306.7316 
   2   2.0000      -1.348977       -36.7075 
   3   2.0000      -0.906279       -24.6611 
   4   2.0000      -0.676239       -18.4014 
   5   2.0000      -0.626083       -17.0366 
   6   2.0000      -0.581556       -15.8249 
   7   2.0000      -0.492625       -13.4050 
   8   2.0000      -0.446808       -12.1583 
   9   0.0000       0.128739         3.5032 
  10   0.0000       0.177054         4.8179 
  11   0.0000       0.219266         5.9665 
  12   0.0000       0.232660         6.3310 
  13   0.0000       0.258337         7.0297 
  14   0.0000       0.321476         8.7478 
  15   0.0000       0.344606         9.3772 
  16   0.0000       0.460928        12.5425 
  17   0.0000       0.505885        13.7658 
  18   0.0000       0.578310        15.7366 
  19   0.0000       0.602613        16.3979 
  20   0.0000       0.621960        16.9244 
  21   0.0000       0.629157        17.1202 
  22   0.0000       0.687434        18.7060 
  23   0.0000       0.700724        19.0677 
  24   0.0000       0.773925        21.0596 
  25   0.0000       0.856400        23.3038 
  26   0.0000       0.920646        25.0521 
  27   0.0000       0.956043        26.0153 
  28   0.0000       1.090585        29.6763 
  29   0.0000       1.138699        30.9856 
  30   0.0000       1.249159        33.9913 
  31   0.0000       1.512708        41.1629 
  32   0.0000       1.635384        44.5011 
  33   0.0000       1.708061        46.4787 
  34   0.0000       1.757815        47.8326 
  35   0.0000       1.784383        48.5555 
  36   0.0000       1.829964        49.7958 
  37   0.0000       1.853988        50.4496 
  38   0.0000       1.888624        51.3921 
  39   0.0000       1.969990        53.6062 
  40   0.0000       2.125366        57.8341 
  41   0.0000       2.213310        60.2272 
  42   0.0000       2.243625        61.0521 
  43   0.0000       2.262983        61.5789 
  44   0.0000       2.301469        62.6262 
  45   0.0000       2.437368        66.3241 
  46   0.0000       2.494742        67.8854 
  47   0.0000       2.568521        69.8930 
  48   0.0000       2.590071        70.4794 
  49   0.0000       2.651388        72.1479 
  50   0.0000       2.676690        72.8364 
  51   0.0000       2.793528        76.0158 
  52   0.0000       2.827801        76.9484 
  53   0.0000       2.851864        77.6032 
  54   0.0000       2.950178        80.2784 
  55   0.0000       3.094070        84.1939 
  56   0.0000       3.174394        86.3797 
  57   0.0000       3.270638        88.9986 
  58   0.0000       3.358544        91.3906 
  59   0.0000       3.408472        92.7492 
  60   0.0000       3.582358        97.4809 
  61   0.0000       3.598276        97.9141 
  62   0.0000       3.663513        99.6893 
  63   0.0000       3.748143       101.9921 
  64   0.0000       3.840399       104.5026 
  65   0.0000       3.911666       106.4418 
  66   0.0000       3.921907       106.7205 
  67   0.0000       4.194458       114.1370 
  68   0.0000       4.453324       121.1811 
  69   0.0000       4.519792       122.9898 
  70   0.0000       4.699098       127.8690 
  71   0.0000       4.851950       132.0283 
  72   0.0000       5.710856       155.4003 
  73   0.0000       5.791460       157.5936 
  74   0.0000       5.842985       158.9957 
  75   0.0000       6.104108       166.1012 
  76   0.0000       6.224074       169.3657 
  77   0.0000       6.356196       172.9609 
  78   0.0000       6.498372       176.8297 
  79   0.0000       6.936922       188.7632 
  80   0.0000       7.173598       195.2035 
  81   0.0000       7.242908       197.0896 
  82   0.0000       7.422402       201.9738 
  83   0.0000       7.563932       205.8251 
  84   0.0000      23.351918       635.4380 
  85   0.0000      45.162931      1228.9458 

                    ********************************
                    * MULLIKEN POPULATION ANALYSIS *
                    ********************************

-----------------------
MULLIKEN ATOMIC CHARGES
-----------------------
   0 O :   -0.528477
   1 H :    0.325822
   2 C :   -0.086404
   3 H :    0.093814
   4 H :    0.092785
   5 H :    0.102460
Sum of atomic charges:   -0.0000000

--------------------------------
MULLIKEN REDUCED ORBITAL CHARGES
--------------------------------
  0 O s       :     3.824492  s :     3.824492
      pz      :     1.693916  p :     4.667311
      px      :     1.263289
      py      :     1.710106
      dz2     :     0.003081  d :     0.035031
      dxz     :     0.011154
      dyz     :     0.005751
      dx2y2   :     0.004546
      dxy     :     0.010499
      f0      :     0.000238  f :     0.001642
      f+1     :     0.000124
      f-1     :     0.000113
      f+2     :     0.000212
      f-2     :     0.000431
      f+3     :     0.000194
      f-3     :     0.000330
  1 H s       :     0.636978  s :     0.636978
      pz      :     0.012313  p :     0.037200
      px      :     0.014356
      py      :     0.010531
  2 C s       :     3.200753  s :     3.200753
      pz      :     0.983095  p :     2.755862
      px      :     0.830358
      py      :     0.942409
      dz2     :     0.024527  d :     0.120147
      dxz     :     0.019051
      dyz     :     0.015738
      dx2y2   :     0.031977
      dxy     :     0.028854
      f0      :     0.001609  f :     0.009642
      f+1     :     0.001152
      f-1     :     0.000851
      f+2     :     0.001097
      f-2     :     0.001335
      f+3     :     0.002027
      f-3     :     0.001570
  3 H s       :     0.887654  s :     0.887654
      pz      :     0.013617  p :     0.018532
      px      :     0.002093
      py      :     0.002822
  4 H s       :     0.886188  s :     0.886188
      pz      :     0.006750  p :     0.021027
      px      :     0.002878
      py      :     0.011398
  5 H s       :     0.876522  s :     0.876522
      pz      :     0.004002  p :     0.021019
      px      :     0.009833
      py      :     0.007184


                     *******************************
                     * LOEWDIN POPULATION ANALYSIS *
                     *******************************

----------------------
LOEWDIN ATOMIC CHARGES
----------------------
   0 O :   -0.133133
   1 H :    0.223528
   2 C :   -0.373546
   3 H :    0.093812
   4 H :    0.086093
   5 H :    0.103246

-------------------------------
LOEWDIN REDUCED ORBITAL CHARGES
-------------------------------
  0 O s       :     3.420862  s :     3.420862
      pz      :     1.653911  p :     4.634226
      px      :     1.293274
      py      :     1.687041
      dz2     :     0.007276  d :     0.073552
      dxz     :     0.021016
      dyz     :     0.007770
      dx2y2   :     0.017957
      dxy     :     0.019533
      f0      :     0.000355  f :     0.004493
      f+1     :     0.000593
      f-1     :     0.000286
      f+2     :     0.000590
      f-2     :     0.001067
      f+3     :     0.000820
      f-3     :     0.000783
  1 H s       :     0.658346  s :     0.658346
[...]
                *********************************************

------------------------------------------------------------------------------
                           ORCA POPULATION ANALYSIS
------------------------------------------------------------------------------
Input electron density              ... 62meoh.sphere.gfn2.md.500k.prod1.3meoh.cm.14.dset.1meoh.dset-orca.engrad-mp2.def2tzvp-13000.to.13005_job6.pmp2ur
BaseName (.gbw .S,...)              ... 62meoh.sphere.gfn2.md.500k.prod1.3meoh.cm.14.dset.1meoh.dset-orca.engrad-mp2.def2tzvp-13000.to.13005_job6

                    ********************************
                    * MULLIKEN POPULATION ANALYSIS *
                    ********************************

-----------------------
MULLIKEN ATOMIC CHARGES
-----------------------
   0 O :   -0.510966
   1 H :    0.304370
   2 C :   -0.075807
   3 H :    0.089420
   4 H :    0.101102
   5 H :    0.091881
Sum of atomic charges:   -0.0000000

--------------------------------
MULLIKEN REDUCED ORBITAL CHARGES
--------------------------------
  0 O s       :     3.781358  s :     3.781358
      pz      :     1.588533  p :     4.662023
      px      :     1.765684
      py      :     1.307806
      dz2     :     0.013162  d :     0.062794
      dxz     :     0.013581
      dyz     :     0.013041
      dx2y2   :     0.014907
      dxy     :     0.008103
      f0      :     0.000614  f :     0.004790
      f+1     :     0.000684
      f-1     :     0.000587
      f+2     :     0.000743
      f-2     :     0.000680
      f+3     :     0.000565
      f-3     :     0.000918
  1 H s       :     0.639296  s :     0.639296
      pz      :     0.015391  p :     0.056334
      px      :     0.018289
      py      :     0.022654
  2 C s       :     3.168454  s :     3.168454
      pz      :     0.847916  p :     2.757158
      px      :     0.915241
      py      :     0.994000
      dz2     :     0.044185  d :     0.136811
      dxz     :     0.018378
      dyz     :     0.018630
      dx2y2   :     0.038389
      dxy     :     0.017228
      f0      :     0.002444  f :     0.013384
      f+1     :     0.002105
      f-1     :     0.002026
      f+2     :     0.002442
      f-2     :     0.001433
      f+3     :     0.001373
      f-3     :     0.001561
  3 H s       :     0.887022  s :     0.887022
      pz      :     0.014614  p :     0.023558
      px      :     0.004273
      py      :     0.004672
  4 H s       :     0.875391  s :     0.875391
      pz      :     0.003981  p :     0.023507
      px      :     0.004275
      py      :     0.015251
  5 H s       :     0.881670  s :     0.881670
      pz      :     0.006028  p :     0.026449
      px      :     0.014514
      py      :     0.005907


                     *******************************
                     * LOEWDIN POPULATION ANALYSIS *
                     *******************************

----------------------
LOEWDIN ATOMIC CHARGES
----------------------
   0 O :   -0.039471
   1 H :    0.127323
   2 C :   -0.359107
   3 H :    0.086319
   4 H :    0.109313
   5 H :    0.075623

-------------------------------
LOEWDIN REDUCED ORBITAL CHARGES
-------------------------------
  0 O s       :     3.319586  s :     3.319586
      pz      :     1.590194  p :     4.603141
      px      :     1.689852
      py      :     1.323096
      dz2     :     0.024456  d :     0.108179
      dxz     :     0.020859
      dyz     :     0.020045
      dx2y2   :     0.030005
      dxy     :     0.012814
      f0      :     0.001299  f :     0.008565
      f+1     :     0.001103
      f-1     :     0.001052
      f+2     :     0.001814
      f-2     :     0.001140
      f+3     :     0.000692
      f-3     :     0.001465
  1 H s       :     0.679431  s :     0.679431
      pz      :     0.052920  p :     0.193246
      px      :     0.055531
      py      :     0.084795
  2 C s       :     2.832098  s :     2.832098
      pz      :     0.967677  p :     2.982293
      px      :     0.994193
      py      :     1.020423
      dz2     :     0.167037  d :     0.471956
      dxz     :     0.078863
      dyz     :     0.058014
      dx2y2   :     0.124344
      dxy     :     0.043697
      f0      :     0.009327  f :     0.072760
      f+1     :     0.012395
      f-1     :     0.012245
      f+2     :     0.014608
      f-2     :     0.011621
      f+3     :     0.005239
      f-3     :     0.007325
  3 H s       :     0.847281  s :     0.847281
      pz      :     0.038814  p :     0.066399
      px      :     0.013015
      py      :     0.014571
  4 H s       :     0.831692  s :     0.831692
      pz      :     0.010620  p :     0.058995
      px      :     0.011332
      py      :     0.037043
  5 H s       :     0.846824  s :     0.846824
      pz      :     0.018195  p :     0.077552
      px      :     0.039953
      py      :     0.019404


                      *****************************
                      * MAYER POPULATION ANALYSIS *
                      *****************************

  NA   - Mulliken gross atomic population
  ZA   - Total nuclear charge
  QA   - Mulliken gross atomic charge
  VA   - Mayer's total valence
  BVA  - Mayer's bonded valence
  FA   - Mayer's free valence

  ATOM       NA         ZA         QA         VA         BVA        FA
  0 O      8.5110     8.0000    -0.5110     2.0869     1.7064     0.3804
  1 H      0.6956     1.0000     0.3044     0.9277     0.8824     0.0452
  2 C      6.0758     6.0000    -0.0758     4.0019     3.7340     0.2679
  3 H      0.9106     1.0000     0.0894     0.9675     0.9195     0.0480
  4 H      0.8989     1.0000     0.1011     0.9744     0.9262     0.0482
  5 H      0.9081     1.0000     0.0919     0.9773     0.9324     0.0449

  Mayer bond orders larger than 0.100000
B(  0-O ,  1-H ) :   0.8759 B(  0-O ,  2-C ) :   0.8653 B(  2-C ,  3-H ) :   0.9460 
B(  2-C ,  4-H ) :   0.9486 B(  2-C ,  5-H ) :   0.9689 


                *******************************************
                * RELAXED MP2 DENSITY POPULATION ANALYSIS *
                *******************************************

------------------------------------------------------------------------------
                           ORCA POPULATION ANALYSIS
------------------------------------------------------------------------------
Input electron density              ... 62meoh.sphere.gfn2.md.500k.prod1.3meoh.cm.14.dset.1meoh.dset-orca.engrad-mp2.def2tzvp-13000.to.13005_job6.pmp2re
BaseName (.gbw .S,...)              ... 62meoh.sphere.gfn2.md.500k.prod1.3meoh.cm.14.dset.1meoh.dset-orca.engrad-mp2.def2tzvp-13000.to.13005_job6

                    ********************************
                    * MULLIKEN POPULATION ANALYSIS *
                    ********************************

-----------------------
MULLIKEN ATOMIC CHARGES
-----------------------
   0 O :   -0.471673
   1 H :    0.298686
   2 C :   -0.161992
   3 H :    0.104330
   4 H :    0.120404
   5 H :    0.110246
Sum of atomic charges:   -0.0000000

--------------------------------
MULLIKEN REDUCED ORBITAL CHARGES
--------------------------------
  0 O s       :     3.779243  s :     3.779243
      pz      :     1.575619  p :     4.627108
      px      :     1.755785
      py      :     1.295704
      dz2     :     0.013045  d :     0.060618
      dxz     :     0.012975
      dyz     :     0.012289
      dx2y2   :     0.014234
      dxy     :     0.008076
      f0      :     0.000613  f :     0.004704
      f+1     :     0.000670
      f-1     :     0.000572
      f+2     :     0.000733
      f-2     :     0.000663
      f+3     :     0.000566
      f-3     :     0.000887
  1 H s       :     0.643992  s :     0.643992
      pz      :     0.016123  p :     0.057323
      px      :     0.019364
      py      :     0.021836
  2 C s       :     3.191597  s :     3.191597
      pz      :     0.871830  p :     2.828432
      px      :     0.937897
      py      :     1.018705
      dz2     :     0.039961  d :     0.129064
      dxz     :     0.018159
      dyz     :     0.018083
      dx2y2   :     0.036219
      dxy     :     0.016643
      f0      :     0.002368  f :     0.012899
      f+1     :     0.002073
      f-1     :     0.001922
      f+2     :     0.002403
      f-2     :     0.001362
      f+3     :     0.001336
      f-3     :     0.001436
  3 H s       :     0.873211  s :     0.873211
      pz      :     0.013097  p :     0.022459
      px      :     0.004504
      py      :     0.004858
  4 H s       :     0.857162  s :     0.857162
      pz      :     0.004137  p :     0.022434
      px      :     0.004451
      py      :     0.013846
  5 H s       :     0.864309  s :     0.864309
      pz      :     0.006182  p :     0.025445
      px      :     0.013257
      py      :     0.006005


                     *******************************
                     * LOEWDIN POPULATION ANALYSIS *
                     *******************************

----------------------
LOEWDIN ATOMIC CHARGES
----------------------
   0 O :   -0.027841
   1 H :    0.129648
   2 C :   -0.392317
   3 H :    0.092133
   4 H :    0.117701
   5 H :    0.080676

-------------------------------
LOEWDIN REDUCED ORBITAL CHARGES
-------------------------------
  0 O s       :     3.321334  s :     3.321334
      pz      :     1.582417  p :     4.590057
      px      :     1.682408
      py      :     1.325232
      dz2     :     0.024615  d :     0.107784
      dxz     :     0.020707
      dyz     :     0.019792
      dx2y2   :     0.029722
      dxy     :     0.012948
      f0      :     0.001307  f :     0.008666
      f+1     :     0.001127
      f-1     :     0.001069
      f+2     :     0.001826
      f-2     :     0.001166
      f+3     :     0.000699
      f-3     :     0.001472
  1 H s       :     0.676608  s :     0.676608
      pz      :     0.053474  p :     0.193744
      px      :     0.056263
      py      :     0.084006
  2 C s       :     2.837417  s :     2.837417
      pz      :     0.978810  p :     3.021004
      px      :     1.006973
      py      :     1.035221
      dz2     :     0.165405  d :     0.462838
      dxz     :     0.076799
      dyz     :     0.056066
      dx2y2   :     0.122589
      dxy     :     0.041978
      f0      :     0.008813  f :     0.071058
      f+1     :     0.012241
      f-1     :     0.012005
      f+2     :     0.014252
      f-2     :     0.011511
      f+3     :     0.005089
      f-3     :     0.007147
  3 H s       :     0.840644  s :     0.840644
      pz      :     0.038615  p :     0.067224
      px      :     0.013548
      py      :     0.015061
  4 H s       :     0.822791  s :     0.822791
      pz      :     0.010999  p :     0.059508
      px      :     0.011763
      py      :     0.036747
  5 H s       :     0.840577  s :     0.840577
      pz      :     0.018700  p :     0.078747
      px      :     0.040023
      py      :     0.020024


                      *****************************
                      * MAYER POPULATION ANALYSIS *
                      *****************************

  NA   - Mulliken gross atomic population
  ZA   - Total nuclear charge
  QA   - Mulliken gross atomic charge
  VA   - Mayer's total valence
  BVA  - Mayer's bonded valence
  FA   - Mayer's free valence

  ATOM       NA         ZA         QA         VA         BVA        FA
  0 O      8.4717     8.0000    -0.4717     2.1429     1.7678     0.3751
  1 H      0.7013     1.0000     0.2987     0.9302     0.8849     0.0453
  2 C      6.1620     6.0000    -0.1620     4.0247     3.7587     0.2660
  3 H      0.8957     1.0000     0.1043     0.9606     0.9132     0.0474
  4 H      0.8796     1.0000     0.1204     0.9655     0.9179     0.0476
  5 H      0.8898     1.0000     0.1102     0.9720     0.9276     0.0443

  Mayer bond orders larger than 0.100000
B(  0-O ,  1-H ) :   0.8767 B(  0-O ,  2-C ) :   0.9167 B(  2-C ,  3-H ) :   0.9341 
B(  2-C ,  4-H ) :   0.9392 B(  2-C ,  5-H ) :   0.9624 


----------------------------------
MP2 DERIVATIVE INTEGRAL GENERATION
----------------------------------


Input Wavefunction Amplitudes       ... 62meoh.sphere.gfn2.md.500k.prod1.3meoh.cm.14.dset.1meoh.dset-orca.engrad-mp2.def2tzvp-13000.to.13005_job6.mp2tsaa.tmp
Input Correlated Electron Density   ... 62meoh.sphere.gfn2.md.500k.prod1.3meoh.cm.14.dset.1meoh.dset-orca.engrad-mp2.def2tzvp-13000.to.13005_job6.pmp2re
Input Energy Weighted Density       ... 62meoh.sphere.gfn2.md.500k.prod1.3meoh.cm.14.dset.1meoh.dset-orca.engrad-mp2.def2tzvp-13000.to.13005_job6.wmp2.tmp
Input SCF Electron Density          ... 62meoh.sphere.gfn2.md.500k.prod1.3meoh.cm.14.dset.1meoh.dset-orca.engrad-mp2.def2tzvp-13000.to.13005_job6.scfp

One-Electron Terms    ...
                        ... One-Electron Terms done
Prescreening matrices              ... done

Batch handling in the gradient evaluation:
Memory available                      ... 8000.0 MB
Memory per occupied orbital in Q2     ...    0.4 MB
Memory per occupied orbital in Q3     ...    0.0 MB
Total memory requirement per |i>      ...    0.4 MB
Max. Number of orbitals possible      ...  18729
Number of orbitals treated per batch  ...      7
Number of batches to be done          ...      1
Batch   0: i=    2 ...     8

---------------------------------------
MP2 TOTAL ENERGY:     -115.490045500 Eh
---------------------------------------

The final MP2 gradient
  0:   0.03302150   0.05596934  -0.02708995
  1:   0.00812616  -0.08410230   0.01202414
  2:   0.02578161   0.05227514   0.00228308
  3:   0.01199692  -0.00746900   0.00678029
  4:  -0.00930977  -0.01435412   0.00647033
  5:  -0.06961641  -0.00231906  -0.00046789

-----------------------------------
NORM OF THE MP2 GRADIENT:  0.145174
-----------------------------------

-------------------------   --------------------
FINAL SINGLE POINT ENERGY      -115.490045499503
-------------------------   --------------------


                            ***************************************
                            *     ORCA property calculations      *
                            ***************************************

                                    ---------------------
                                    Active property flags
                                    ---------------------
   (+) Dipole Moment


------------------------------------------------------------------------------
                       ORCA ELECTRIC PROPERTIES CALCULATION
------------------------------------------------------------------------------

Dipole Moment Calculation                       ... on
Quadrupole Moment Calculation                   ... off
Polarizability Calculation                      ... off
GBWName                                         ... 62meoh.sphere.gfn2.md.500k.prod1.3meoh.cm.14.dset.1meoh.dset-orca.engrad-mp2.def2tzvp-13000.to.13005_job6.gbw
Electron density file                           ... 62meoh.sphere.gfn2.md.500k.prod1.3meoh.cm.14.dset.1meoh.dset-orca.engrad-mp2.def2tzvp-13000.to.13005_job6.scfp
The origin for moment calculation is the CENTER OF MASS  = ( 0.000045, -0.000031 -0.000060)

-------------
DIPOLE MOMENT
-------------
                                X             Y             Z
Electronic contribution:     -0.94952       0.73506       1.19553
Nuclear contribution   :      1.24550      -0.37881      -1.75678
                        -----------------------------------------
Total Dipole Moment    :      0.29597       0.35625      -0.56125
                        -----------------------------------------
Magnitude (a.u.)       :      0.72768
Magnitude (Debye)      :      1.84962



--------------------
Rotational spectrum 
--------------------
 
Rotational constants in cm-1:     4.507833     0.888910     0.849718 
Rotational constants in MHz : 135141.435236 26648.844867 25473.901341 

 Dipole components along the rotational axes: 
x,y,z [a.u.] :    -0.379980    -0.620412    -0.014995 
x,y,z [Debye]:    -0.965833    -1.576962    -0.038113 

 

                         *** MP2 UNRELAXED DENSITY ***

------------------------------------------------------------------------------
                       ORCA ELECTRIC PROPERTIES CALCULATION
------------------------------------------------------------------------------

Dipole Moment Calculation                       ... on
Quadrupole Moment Calculation                   ... off
Polarizability Calculation                      ... off
GBWName                                         ... 62meoh.sphere.gfn2.md.500k.prod1.3meoh.cm.14.dset.1meoh.dset-orca.engrad-mp2.def2tzvp-13000.to.13005_job6.gbw
Electron density file                           ... 62meoh.sphere.gfn2.md.500k.prod1.3meoh.cm.14.dset.1meoh.dset-orca.engrad-mp2.def2tzvp-13000.to.13005_job6.pmp2ur
The origin for moment calculation is the CENTER OF MASS  = ( 0.000045, -0.000031 -0.000060)

-------------
DIPOLE MOMENT
-------------
                                X             Y             Z
Electronic contribution:     -0.95577       0.73313       1.20788
Nuclear contribution   :      1.24550      -0.37881      -1.75678
                        -----------------------------------------
Total Dipole Moment    :      0.28972       0.35432      -0.54890
                        -----------------------------------------
Magnitude (a.u.)       :      0.71469
Magnitude (Debye)      :      1.81660



--------------------
Rotational spectrum 
--------------------
 
Rotational constants in cm-1:     4.507833     0.888910     0.849718 
Rotational constants in MHz : 135141.435236 26648.844867 25473.901341 

 Dipole components along the rotational axes: 
x,y,z [a.u.] :    -0.368937    -0.611947    -0.013717 
x,y,z [Debye]:    -0.937763    -1.555446    -0.034867 

 

                           *** MP2 RELAXED DENSITY ***

------------------------------------------------------------------------------
                       ORCA ELECTRIC PROPERTIES CALCULATION
------------------------------------------------------------------------------

Dipole Moment Calculation                       ... on
Quadrupole Moment Calculation                   ... off
Polarizability Calculation                      ... off
GBWName                                         ... 62meoh.sphere.gfn2.md.500k.prod1.3meoh.cm.14.dset.1meoh.dset-orca.engrad-mp2.def2tzvp-13000.to.13005_job6.gbw
Electron density file                           ... 62meoh.sphere.gfn2.md.500k.prod1.3meoh.cm.14.dset.1meoh.dset-orca.engrad-mp2.def2tzvp-13000.to.13005_job6.pmp2re
The origin for moment calculation is the CENTER OF MASS  = ( 0.000045, -0.000031 -0.000060)

-------------
DIPOLE MOMENT
-------------
                                X             Y             Z
Electronic contribution:     -0.96677       0.72440       1.22563
Nuclear contribution   :      1.24550      -0.37881      -1.75678
                        -----------------------------------------
Total Dipole Moment    :      0.27872       0.34559      -0.53116
                        -----------------------------------------
Magnitude (a.u.)       :      0.69228
Magnitude (Debye)      :      1.75963



--------------------
Rotational spectrum 
--------------------
 
Rotational constants in cm-1:     4.507833     0.888910     0.849718 
Rotational constants in MHz : 135141.435236 26648.844867 25473.901341 

 Dipole components along the rotational axes: 
x,y,z [a.u.] :    -0.354842    -0.594250    -0.014290 
x,y,z [Debye]:    -0.901938    -1.510463    -0.036322 

 

Timings for individual modules:

Sum of individual times         ...        6.263 sec (=   0.104 min)
GTO integral calculation        ...        0.937 sec (=   0.016 min)  15.0 %
SCF iterations                  ...        2.709 sec (=   0.045 min)  43.3 %
MP2 module                      ...        2.617 sec (=   0.044 min)  41.8 %



                             ****ORCA TERMINATED NORMALLY****
TOTAL RUN TIME: 0 days 0 hours 0 minutes 42 seconds 366 msec
