
                                 *****************
                                 * O   R   C   A *
                                 *****************

           --- An Ab Initio, DFT and Semiempirical electronic structure package ---

                  #######################################################
                  #                        -***-                        #
                  #          Department of theory and spectroscopy      #
                  #               Directorship: Frank Neese             #
                  #        Max Planck Institute fuer Kohlenforschung    #
                  #                Kaiser Wilhelm Platz 1               #
                  #                 D-45470 Muelheim/Ruhr               #
                  #                      Germany                        #
                  #                                                     #
                  #                  All rights reserved                #
                  #                        -***-                        #
                  #######################################################


                         Program Version 4.2.0 -  RELEASE  -


 With contributions from (in alphabetic order):
   Daniel Aravena         : Magnetic Suceptibility
   Michael Atanasov       : Ab Initio Ligand Field Theory (pilot matlab implementation)
   Alexander A. Auer      : GIAO ZORA, VPT2
   Ute Becker             : Parallelization
   Giovanni Bistoni       : ED, misc. LED, open-shell LED, HFLED
   Martin Brehm           : Molecular dynamics
   Dmytro Bykov           : SCF Hessian
   Vijay G. Chilkuri      : MRCI spin determinant printing, contributions to CSF-ICE
   Dipayan Datta          : RHF DLPNO-CCSD density
   Achintya Kumar Dutta   : EOM-CC, STEOM-CC
   Dmitry Ganyushin       : Spin-Orbit,Spin-Spin,Magnetic field MRCI
   Miquel Garcia          : C-PCM Hessian, Gaussian charge scheme
   Yang Guo               : DLPNO-NEVPT2, CIM, IAO-localization
   Andreas Hansen         : Spin unrestricted coupled pair/coupled cluster methods
   Benjamin Helmich-Paris : CASSCF linear response (MC-RPA)
   Lee Huntington         : MR-EOM, pCC
   Robert Izsak           : Overlap fitted RIJCOSX, COSX-SCS-MP3, EOM
   Christian Kollmar      : KDIIS, OOCD, Brueckner-CCSD(T), CCSD density
   Simone Kossmann        : Meta GGA functionals, TD-DFT gradient, OOMP2, MP2 Hessian
   Martin Krupicka        : AUTO-CI
   Lucas Lang             : DCDCAS
   Dagmar Lenk            : GEPOL surface, SMD
   Dimitrios Liakos       : Extrapolation schemes; Compound Job, initial MDCI parallelization
   Dimitrios Manganas     : Further ROCIS development; embedding schemes
   Dimitrios Pantazis     : SARC Basis sets
   Taras Petrenko         : DFT Hessian,TD-DFT gradient, ASA, ECA, R-Raman, ABS, FL, XAS/XES, NRVS
   Peter Pinski           : DLPNO-MP2, DLPNO-MP2 Gradient
   Christoph Reimann      : Effective Core Potentials
   Marius Retegan         : Local ZFS, SOC
   Christoph Riplinger    : Optimizer, TS searches, QM/MM, DLPNO-CCSD(T), (RO)-DLPNO pert. Triples
   Tobias Risthaus        : Range-separated hybrids, TD-DFT gradient, RPA, STAB
   Michael Roemelt        : Original ROCIS implementation
   Masaaki Saitow         : Open-shell DLPNO-CCSD energy and density
   Barbara Sandhoefer     : DKH picture change effects
   Avijit Sen             : IP-ROCIS
   Kantharuban Sivalingam : CASSCF convergence, NEVPT2, FIC-MRCI
   Bernardo de Souza      : ESD, SOC TD-DFT
   Georgi Stoychev        : AutoAux, RI-MP2 NMR
   Willem Van den Heuvel  : Paramagnetic NMR
   Boris Wezisla          : Elementary symmetry handling
   Frank Wennmohs         : Technical directorship


 We gratefully acknowledge several colleagues who have allowed us to
 interface, adapt or use parts of their codes:
   Stefan Grimme, W. Hujo, H. Kruse,             : VdW corrections, initial TS optimization,
                  C. Bannwarth                     DFT functionals, gCP, sTDA/sTD-DF
   Ed Valeev, F. Pavosevic, A. Kumar             : LibInt (2-el integral package), F12 methods
   Garnet Chan, S. Sharma, J. Yang, R. Olivares  : DMRG
   Ulf Ekstrom                                   : XCFun DFT Library
   Mihaly Kallay                                 : mrcc  (arbitrary order and MRCC methods)
   Andreas Klamt, Michael Diedenhofen            : otool_cosmo (COSMO solvation model)
   Jiri Pittner, Ondrej Demel                    : Mk-CCSD
   Frank Weinhold                                : gennbo (NPA and NBO analysis)
   Christopher J. Cramer and Donald G. Truhlar   : smd solvation model
   Lars Goerigk                                  : TD-DFT with DH, B97 family of functionals
   V. Asgeirsson, H. Jonsson                     : NEB implementation
   FAccTs GmbH                                   : IRC, NEB, NEB-TS, Multilevel, MM, QM/MM, CI optimization
   S Lehtola, MJT Oliveira, MAL Marques          : LibXC Library


 Your calculation uses the libint2 library for the computation of 2-el integrals
 For citations please refer to: http://libint.valeyev.net

 Your ORCA version has been built with support for libXC version: 4.2.3
 For citations please refer to: https://tddft.org/programs/libxc/

 This ORCA versions uses:
   CBLAS   interface :  Fast vector & matrix operations
   LAPACKE interface :  Fast linear algebra routines
   SCALAPACK package :  Parallel linear algebra routines


----- Orbital basis set information -----
Your calculation utilizes the basis: def2-TZVP
   F. Weigend and R. Ahlrichs, Phys. Chem. Chem. Phys. 7, 3297 (2005).

================================================================================
                                        WARNINGS
                       Please study these warnings very carefully!
================================================================================


WARNING: The frozen-core approximation for MP2-gradient calculations is turned on by default.

INFO   : the flag for use of LIBINT has been found!

----- Orbital basis set information -----
Your calculation utilizes the basis: def2-TZVP
   F. Weigend and R. Ahlrichs, Phys. Chem. Chem. Phys. 7, 3297 (2005).

================================================================================
                                        WARNINGS
                       Please study these warnings very carefully!
================================================================================


WARNING: The frozen-core approximation for MP2-gradient calculations is turned on by default.

INFO   : the flag for use of LIBINT has been found!

----- Orbital basis set information -----
Your calculation utilizes the basis: def2-TZVP
   F. Weigend and R. Ahlrichs, Phys. Chem. Chem. Phys. 7, 3297 (2005).

================================================================================
                                        WARNINGS
                       Please study these warnings very carefully!
================================================================================


WARNING: The frozen-core approximation for MP2-gradient calculations is turned on by default.

INFO   : the flag for use of LIBINT has been found!

----- Orbital basis set information -----
Your calculation utilizes the basis: def2-TZVP
   F. Weigend and R. Ahlrichs, Phys. Chem. Chem. Phys. 7, 3297 (2005).

================================================================================
                                        WARNINGS
                       Please study these warnings very carefully!
================================================================================


WARNING: The frozen-core approximation for MP2-gradient calculations is turned on by default.

INFO   : the flag for use of LIBINT has been found!

----- Orbital basis set information -----
Your calculation utilizes the basis: def2-TZVP
   F. Weigend and R. Ahlrichs, Phys. Chem. Chem. Phys. 7, 3297 (2005).

================================================================================
                                        WARNINGS
                       Please study these warnings very carefully!
================================================================================


WARNING: The frozen-core approximation for MP2-gradient calculations is turned on by default.

INFO   : the flag for use of LIBINT has been found!

----- Orbital basis set information -----
Your calculation utilizes the basis: def2-TZVP
   F. Weigend and R. Ahlrichs, Phys. Chem. Chem. Phys. 7, 3297 (2005).

================================================================================
                                        WARNINGS
                       Please study these warnings very carefully!
================================================================================


WARNING: The frozen-core approximation for MP2-gradient calculations is turned on by default.

INFO   : the flag for use of LIBINT has been found!

----- Orbital basis set information -----
Your calculation utilizes the basis: def2-TZVP
   F. Weigend and R. Ahlrichs, Phys. Chem. Chem. Phys. 7, 3297 (2005).

================================================================================
                                        WARNINGS
                       Please study these warnings very carefully!
================================================================================


WARNING: The frozen-core approximation for MP2-gradient calculations is turned on by default.

INFO   : the flag for use of LIBINT has been found!

----- Orbital basis set information -----
Your calculation utilizes the basis: def2-TZVP
   F. Weigend and R. Ahlrichs, Phys. Chem. Chem. Phys. 7, 3297 (2005).

================================================================================
                                        WARNINGS
                       Please study these warnings very carefully!
================================================================================


WARNING: The frozen-core approximation for MP2-gradient calculations is turned on by default.

INFO   : the flag for use of LIBINT has been found!

----- Orbital basis set information -----
Your calculation utilizes the basis: def2-TZVP
   F. Weigend and R. Ahlrichs, Phys. Chem. Chem. Phys. 7, 3297 (2005).

================================================================================
                                        WARNINGS
                       Please study these warnings very carefully!
================================================================================


WARNING: The frozen-core approximation for MP2-gradient calculations is turned on by default.

INFO   : the flag for use of LIBINT has been found!

----- Orbital basis set information -----
Your calculation utilizes the basis: def2-TZVP
   F. Weigend and R. Ahlrichs, Phys. Chem. Chem. Phys. 7, 3297 (2005).

================================================================================
                                        WARNINGS
                       Please study these warnings very carefully!
================================================================================


WARNING: The frozen-core approximation for MP2-gradient calculations is turned on by default.

INFO   : the flag for use of LIBINT has been found!

----- Orbital basis set information -----
Your calculation utilizes the basis: def2-TZVP
   F. Weigend and R. Ahlrichs, Phys. Chem. Chem. Phys. 7, 3297 (2005).

================================================================================
                                        WARNINGS
                       Please study these warnings very carefully!
================================================================================


WARNING: The frozen-core approximation for MP2-gradient calculations is turned on by default.

INFO   : the flag for use of LIBINT has been found!

----- Orbital basis set information -----
Your calculation utilizes the basis: def2-TZVP
   F. Weigend and R. Ahlrichs, Phys. Chem. Chem. Phys. 7, 3297 (2005).

================================================================================
                                        WARNINGS
                       Please study these warnings very carefully!
================================================================================


WARNING: The frozen-core approximation for MP2-gradient calculations is turned on by default.

INFO   : the flag for use of LIBINT has been found!

================================================================================
                                       INPUT FILE
================================================================================
NAME = 4h2o.temelso.etal.dset.1h2o.dset-orca.engrad-mp2.def2tzvp.inp
|  1> # 4h2o.temelso.etal.dset.1h2o.dset-orca.engrad-mp2.def2tzvp
|  2> ! MP2 def2-TZVP EnGrad TightSCF FrozenCore
|  3> 
|  4> %pal
|  5>     nprocs 12
|  6> end
|  7> 
|  8> %maxcore 8000
|  9> 
| 10> %scf
| 11>     ConvForced true
| 12> end
| 13> 
| 14> *xyz 0 1
| 15> O   0.032526650  -0.041897504   0.040241520
| 16> H  -0.385673350  -0.256497504  -0.802558480
| 17> H  -0.130673350   0.921602496   0.163741520
| 18> *
| 19> 
| 20> 
| 21> $new_job
| 22> 
| 23> # 4h2o.temelso.etal.dset.1h2o.dset-orca.engrad-mp2.def2tzvp
| 24> ! MP2 def2-TZVP EnGrad TightSCF FrozenCore
| 25> 
| 26> %pal
| 27>     nprocs 12
| 28> end
| 29> 
| 30> %maxcore 8000
| 31> 
| 32> %scf
| 33>     ConvForced true
| 34> end
| 35> 
| 36> *xyz 0 1
| 37> O   0.041718478   0.043408029  -0.028448231
| 38> H  -0.915881522  -0.095391971  -0.213148231
| 39> H   0.253618478  -0.593691971   0.664751769
| 40> *
| 41> 
| 42> 
| 43> $new_job
| 44> 
| 45> # 4h2o.temelso.etal.dset.1h2o.dset-orca.engrad-mp2.def2tzvp
| 46> ! MP2 def2-TZVP EnGrad TightSCF FrozenCore
| 47> 
| 48> %pal
| 49>     nprocs 12
| 50> end
| 51> 
| 52> %maxcore 8000
| 53> 
| 54> %scf
| 55>     ConvForced true
| 56> end
| 57> 
| 58> *xyz 0 1
| 59> O  -0.044761908   0.031111232   0.038238675
| 60> H   0.113438092  -0.936788768  -0.053861325
| 61> H   0.597138092   0.442911232  -0.553161325
| 62> *
| 63> 
| 64> 
| 65> $new_job
| 66> 
| 67> # 4h2o.temelso.etal.dset.1h2o.dset-orca.engrad-mp2.def2tzvp
| 68> ! MP2 def2-TZVP EnGrad TightSCF FrozenCore
| 69> 
| 70> %pal
| 71>     nprocs 12
| 72> end
| 73> 
| 74> %maxcore 8000
| 75> 
| 76> %scf
| 77>     ConvForced true
| 78> end
| 79> 
| 80> *xyz 0 1
| 81> O  -0.029477627  -0.032582596  -0.050043153
| 82> H   0.932922373   0.110417404   0.103656847
| 83> H  -0.464977627   0.406817404   0.690756847
| 84> *
| 85> 
| 86> 
| 87> $new_job
| 88> 
| 89> # 4h2o.temelso.etal.dset.1h2o.dset-orca.engrad-mp2.def2tzvp
| 90> ! MP2 def2-TZVP EnGrad TightSCF FrozenCore
| 91> 
| 92> %pal
| 93>     nprocs 12
| 94> end
| 95> 
| 96> %maxcore 8000
| 97> 
| 98> %scf
| 99>     ConvForced true
|100> end
|101> 
|102> *xyz 0 1
|103> O   0.039407934   0.045533954  -0.027832832
|104> H   0.296507934  -0.621166046   0.620667168
|105> H  -0.922092066  -0.101666046  -0.178832832
|106> *
|107> 
|108> 
|109> $new_job
|110> 
|111> # 4h2o.temelso.etal.dset.1h2o.dset-orca.engrad-mp2.def2tzvp
|112> ! MP2 def2-TZVP EnGrad TightSCF FrozenCore
|113> 
|114> %pal
|115>     nprocs 12
|116> end
|117> 
|118> %maxcore 8000
|119> 
|120> %scf
|121>     ConvForced true
|122> end
|123> 
|124> *xyz 0 1
|125> O  -0.046619295   0.025393613   0.039950604
|126> H   0.629680705   0.515993613  -0.442449396
|127> H   0.110380705  -0.919106387  -0.191749396
|128> *
|129> 
|130> 
|131> $new_job
|132> 
|133> # 4h2o.temelso.etal.dset.1h2o.dset-orca.engrad-mp2.def2tzvp
|134> ! MP2 def2-TZVP EnGrad TightSCF FrozenCore
|135> 
|136> %pal
|137>     nprocs 12
|138> end
|139> 
|140> %maxcore 8000
|141> 
|142> %scf
|143>     ConvForced true
|144> end
|145> 
|146> *xyz 0 1
|147> O  -0.039435906  -0.045505981   0.027844021
|148> H   0.922064094   0.101694019   0.179244021
|149> H  -0.296035906   0.620694019  -0.621255979
|150> *
|151> 
|152> 
|153> $new_job
|154> 
|155> # 4h2o.temelso.etal.dset.1h2o.dset-orca.engrad-mp2.def2tzvp
|156> ! MP2 def2-TZVP EnGrad TightSCF FrozenCore
|157> 
|158> %pal
|159>     nprocs 12
|160> end
|161> 
|162> %maxcore 8000
|163> 
|164> %scf
|165>     ConvForced true
|166> end
|167> 
|168> *xyz 0 1
|169> O   0.046596916  -0.025399208  -0.039972982
|170> H  -0.110303084   0.919100792   0.191427018
|171> H  -0.629403084  -0.515899208   0.443127018
|172> *
|173> 
|174> 
|175> $new_job
|176> 
|177> # 4h2o.temelso.etal.dset.1h2o.dset-orca.engrad-mp2.def2tzvp
|178> ! MP2 def2-TZVP EnGrad TightSCF FrozenCore
|179> 
|180> %pal
|181>     nprocs 12
|182> end
|183> 
|184> %maxcore 8000
|185> 
|186> %scf
|187>     ConvForced true
|188> end
|189> 
|190> *xyz 0 1
|191> O  -0.036655420  -0.048717247   0.024565621
|192> H  -0.329255420   0.694382753  -0.538834379
|193> H   0.911144580   0.078982753   0.148865621
|194> *
|195> 
|196> 
|197> $new_job
|198> 
|199> # 4h2o.temelso.etal.dset.1h2o.dset-orca.engrad-mp2.def2tzvp
|200> ! MP2 def2-TZVP EnGrad TightSCF FrozenCore
|201> 
|202> %pal
|203>     nprocs 12
|204> end
|205> 
|206> %maxcore 8000
|207> 
|208> %scf
|209>     ConvForced true
|210> end
|211> 
|212> *xyz 0 1
|213> O  -0.036465206   0.046054246  -0.031681875
|214> H   0.262634794   0.068454246   0.886818125
|215> H   0.316234794  -0.799545754  -0.383881875
|216> *
|217> 
|218> 
|219> $new_job
|220> 
|221> # 4h2o.temelso.etal.dset.1h2o.dset-orca.engrad-mp2.def2tzvp
|222> ! MP2 def2-TZVP EnGrad TightSCF FrozenCore
|223> 
|224> %pal
|225>     nprocs 12
|226> end
|227> 
|228> %maxcore 8000
|229> 
|230> %scf
|231>     ConvForced true
|232> end
|233> 
|234> *xyz 0 1
|235> O   0.048258495  -0.041623371  -0.015776600
|236> H  -0.693341505  -0.188323371   0.615323400
|237> H  -0.072741505   0.849076629  -0.364876600
|238> *
|239> 
|240> 
|241> $new_job
|242> 
|243> # 4h2o.temelso.etal.dset.1h2o.dset-orca.engrad-mp2.def2tzvp
|244> ! MP2 def2-TZVP EnGrad TightSCF FrozenCore
|245> 
|246> %pal
|247>     nprocs 12
|248> end
|249> 
|250> %maxcore 8000
|251> 
|252> %scf
|253>     ConvForced true
|254> end
|255> 
|256> *xyz 0 1
|257> O  -0.049701886  -0.045382901   0.013135978
|258> H  -0.015201886   0.637217099  -0.674564022
|259> H   0.804198114   0.083217099   0.466035978
|260> *
|261> 
|262>                          ****END OF INPUT****
================================================================================


                 $$$$$$$$$$$$$$$$$$$$$$$$$$$$$$$$$$$$$$$$$$$$$$ 
                 $ THERE ARE 12 JOBS TO BE PROCESSED THIS RUN $
                 $$$$$$$$$$$$$$$$$$$$$$$$$$$$$$$$$$$$$$$$$$$$$$ 




                 $$$$$$$$$$$$$$$$  JOB NUMBER  1 $$$$$$$$$$$$$$


                     *******************************
                     * Energy+Gradient Calculation *
                     *******************************

---------------------------------
CARTESIAN COORDINATES (ANGSTROEM)
---------------------------------
  O      0.032527   -0.041898    0.040242
  H     -0.385673   -0.256498   -0.802558
  H     -0.130673    0.921602    0.163742

----------------------------
CARTESIAN COORDINATES (A.U.)
----------------------------
  NO LB      ZA    FRAG     MASS         X           Y           Z
   0 O     8.0000    0    15.999    0.061466   -0.079175    0.076045
   1 H     1.0000    0     1.008   -0.728817   -0.484710   -1.516616
   2 H     1.0000    0     1.008   -0.246937    1.741576    0.309427

--------------------------------
INTERNAL COORDINATES (ANGSTROEM)
--------------------------------
 O      0   0   0     0.000000000000     0.00000000     0.00000000
 H      1   0   0     0.965016186393     0.00000000     0.00000000
 H      1   2   0     0.984996822330   104.78701950     0.00000000

---------------------------
INTERNAL COORDINATES (A.U.)
---------------------------
 O      0   0   0     0.000000000000     0.00000000     0.00000000
 H      1   0   0     1.823616307083     0.00000000     0.00000000
 H      1   2   0     1.861374236986   104.78701950     0.00000000

---------------------
BASIS SET INFORMATION
---------------------
There are 2 groups of distinct atoms

 Group   1 Type O   : 11s6p2d1f contracted to 5s3p2d1f pattern {62111/411/11/1}
 Group   2 Type H   : 5s1p contracted to 3s1p pattern {311/1}

Atom   0O    basis set group =>   1
Atom   1H    basis set group =>   2
Atom   2H    basis set group =>   2


           ************************************************************
           *        Program running with 12 parallel MPI-processes    *
           *              working on a common directory               *
           ************************************************************
------------------------------------------------------------------------------
                           ORCA GTO INTEGRAL CALCULATION
------------------------------------------------------------------------------

                         BASIS SET STATISTICS AND STARTUP INFO

 # of primitive gaussian shells          ...   32
 # of primitive gaussian functions       ...   62
 # of contracted shells                  ...   19
 # of contracted basis functions         ...   43
 Highest angular momentum                ...    3
 Maximum contraction depth               ...    6
 Integral package used                   ... LIBINT
 Integral threshhold            Thresh   ...  2.500e-11
 Primitive cut-off              TCut     ...  2.500e-12


------------------------------ INTEGRAL EVALUATION ----------------------------


 * One electron integrals 
 Pre-screening matrix                    ... done
 Shell pair data                         ... done (   0.000 sec)



           ************************************************************
           *        Program running with 12 parallel MPI-processes    *
           *              working on a common directory               *
           ************************************************************
-------------------------------------------------------------------------------
                                 ORCA SCF
-------------------------------------------------------------------------------

------------
SCF SETTINGS
------------
Hamiltonian:
 Ab initio Hamiltonian  Method          .... Hartree-Fock(GTOs)


General Settings:
 Integral files         IntName         .... 4h2o.temelso.etal.dset.1h2o.dset-orca.engrad-mp2.def2tzvp
 Hartree-Fock type      HFTyp           .... RHF
 Total Charge           Charge          ....    0
 Multiplicity           Mult            ....    1
 Number of Electrons    NEL             ....   10
 Basis Dimension        Dim             ....   43
 Nuclear Repulsion      ENuc            ....      9.0273218028 Eh

Convergence Acceleration:
 DIIS                   CNVDIIS         .... on
   Start iteration      DIISMaxIt       ....    12
   Startup error        DIISStart       ....  0.200000
   # of expansion vecs  DIISMaxEq       ....     5
   Bias factor          DIISBfac        ....   1.050
   Max. coefficient     DIISMaxC        ....  10.000
 Newton-Raphson         CNVNR           .... off
 SOSCF                  CNVSOSCF        .... on
   Start iteration      SOSCFMaxIt      ....   150
   Startup grad/error   SOSCFStart      ....  0.003300
 Level Shifting         CNVShift        .... on
   Level shift para.    LevelShift      ....    0.2500
   Turn off err/grad.   ShiftErr        ....    0.0010
 Zerner damping         CNVZerner       .... off
 Static damping         CNVDamp         .... on
   Fraction old density DampFac         ....    0.7000
   Max. Damping (<1)    DampMax         ....    0.9800
   Min. Damping (>=0)   DampMin         ....    0.0000
   Turn off err/grad.   DampErr         ....    0.1000
 Fernandez-Rico         CNVRico         .... off

SCF Procedure:
 Maximum # iterations   MaxIter         ....   125
 SCF integral mode      SCFMode         .... Direct
   Integral package                     .... LIBINT
 Reset frequency        DirectResetFreq ....    20
 Integral Threshold     Thresh          ....  2.500e-11 Eh
 Primitive CutOff       TCut            ....  2.500e-12 Eh

Convergence Tolerance:
 Convergence Check Mode ConvCheckMode   .... Total+1el-Energy
 Convergence forced     ConvForced      .... 1
 Energy Change          TolE            ....  1.000e-08 Eh
 1-El. energy change                    ....  1.000e-05 Eh
 Orbital Gradient       TolG            ....  1.000e-05
 Orbital Rotation angle TolX            ....  1.000e-05
 DIIS Error             TolErr          ....  5.000e-07


Diagonalization of the overlap matrix:
Smallest eigenvalue                        ... 8.930e-03
Time for diagonalization                   ...    0.033 sec
Threshold for overlap eigenvalues          ... 1.000e-08
Number of eigenvalues below threshold      ... 0
Time for construction of square roots      ...    0.000 sec
Total time needed                          ...    0.034 sec

-------------------
DFT GRID GENERATION
-------------------

General Integration Accuracy     IntAcc      ...  4.340
Radial Grid Type                 RadialGrid  ... Gauss-Chebyshev
Angular Grid (max. acc.)         AngularGrid ... Lebedev-110
Angular grid pruning method      GridPruning ... 3 (G Style)
Weight generation scheme         WeightScheme... Becke
Basis function cutoff            BFCut       ...    1.0000e-11
Integration weight cutoff        WCut        ...    1.0000e-14
Grids for H and He will be reduced by one unit

# of grid points (after initial pruning)     ...   3304 (   0.0 sec)
# of grid points (after weights+screening)   ...   3284 (   0.0 sec)
nearest neighbour list constructed           ...    0.0 sec
Grid point re-assignment to atoms done       ...    0.0 sec
Grid point division into batches done        ...    0.0 sec
Reduced shell lists constructed in    0.0 sec

Total number of grid points                  ...     3284
Total number of batches                      ...       53
Average number of points per batch           ...       61
Average number of grid points per atom       ...     1095
Average number of shells per batch           ...    12.67 (66.67%)
Average number of basis functions per batch  ...    29.00 (67.44%)
Average number of large shells per batch     ...    11.50 (90.79%)
Average number of large basis fcns per batch ...    26.17 (90.23%)
Maximum spatial batch extension              ...  20.95, 15.18, 18.30 au
Average spatial batch extension              ...   0.96,  0.82,  0.89 au

Time for grid setup =    0.016 sec

------------------------------
INITIAL GUESS: MODEL POTENTIAL
------------------------------
Loading Hartree-Fock densities                     ... done
Calculating cut-offs                               ... done
Setting up the integral package                    ... done
Initializing the effective Hamiltonian             ... done
Starting the Coulomb interaction                   ... done (   0.0 sec)
Reading the grid                                   ... done
Mapping shells                                     ... done
Starting the XC term evaluation                    ... done (   0.0 sec)
Transforming the Hamiltonian                       ... done (   0.0 sec)
Diagonalizing the Hamiltonian                      ... done (   0.0 sec)
Back transforming the eigenvectors                 ... done (   0.0 sec)
Now organizing SCF variables                       ... done
                      ------------------
                      INITIAL GUESS DONE (   0.1 sec)
                      ------------------
--------------
SCF ITERATIONS
--------------
ITER       Energy         Delta-E        Max-DP      RMS-DP      [F,P]     Damp
               ***  Starting incremental Fock matrix formation  ***
  0    -75.9554243548   0.000000000000 0.04279830  0.00244809  0.3446968 0.7000
  1    -75.9960150623  -0.040590707539 0.02830418  0.00167754  0.2157290 0.7000
                               ***Turning on DIIS***
  2    -76.0170849303  -0.021069868034 0.01629282  0.00090836  0.1638059 0.7000
  3    -76.1945246005  -0.177439670132 0.00730805  0.00038282  0.1218806 0.7000
  4    -76.1574018675   0.037122732940 0.01588473  0.00086632  0.0862158 0.0000
  5    -76.0655217554   0.091880112163 0.00173658  0.00013837  0.0056084 0.0000
                      *** Initiating the SOSCF procedure ***
                           *** Shutting down DIIS ***
                      *** Re-Reading the Fockian *** 
                      *** Removing any level shift *** 
ITER      Energy       Delta-E        Grad      Rot      Max-DP    RMS-DP
  6    -76.05916606   0.0063556915  0.001167  0.001167  0.001025  0.000080
               *** Restarting incremental Fock matrix formation ***
  7    -76.05719720   0.0019688622  0.000377  0.000536  0.000304  0.000034
  8    -76.05719846  -0.0000012561  0.000227  0.000402  0.000415  0.000028
  9    -76.05719875  -0.0000002937  0.000069  0.000057  0.000072  0.000005
 10    -76.05719878  -0.0000000244  0.000008  0.000007  0.000006  0.000001
 11    -76.05719878  -0.0000000005  0.000003  0.000004  0.000003  0.000000
                 **** Energy Check signals convergence ****
              ***Rediagonalizing the Fockian in SOSCF/NRSCF***

               *****************************************************
               *                     SUCCESS                       *
               *           SCF CONVERGED AFTER  12 CYCLES          *
               *****************************************************


----------------
TOTAL SCF ENERGY
----------------

Total Energy       :          -76.05719878 Eh           -2069.62160 eV

Components:
Nuclear Repulsion  :            9.02732180 Eh             245.64591 eV
Electronic Energy  :          -85.08452058 Eh           -2315.26751 eV
One Electron Energy:         -122.78293818 Eh           -3341.09361 eV
Two Electron Energy:           37.69841760 Eh            1025.82609 eV

Virial components:
Potential Energy   :         -151.99273478 Eh           -4135.93258 eV
Kinetic Energy     :           75.93553600 Eh            2066.31098 eV
Virial Ratio       :            2.00160218


---------------
SCF CONVERGENCE
---------------

  Last Energy change         ...   -6.0169e-11  Tolerance :   1.0000e-08
  Last MAX-Density change    ...    6.3879e-07  Tolerance :   1.0000e-07
  Last RMS-Density change    ...    4.4227e-08  Tolerance :   5.0000e-09
  Last Orbital Gradient      ...    4.8460e-07  Tolerance :   1.0000e-05
  Last Orbital Rotation      ...    7.0020e-07  Tolerance :   1.0000e-05

             **** THE GBW FILE WAS UPDATED (4h2o.temelso.etal.dset.1h2o.dset-orca.engrad-mp2.def2tzvp.gbw) ****
             **** DENSITY FILE WAS UPDATED (4h2o.temelso.etal.dset.1h2o.dset-orca.engrad-mp2.def2tzvp.scfp) ****
             **** ENERGY FILE WAS UPDATED (4h2o.temelso.etal.dset.1h2o.dset-orca.engrad-mp2.def2tzvp.en.tmp) ****
             **** THE GBW FILE WAS UPDATED (4h2o.temelso.etal.dset.1h2o.dset-orca.engrad-mp2.def2tzvp.gbw) ****
             **** DENSITY FILE WAS UPDATED (4h2o.temelso.etal.dset.1h2o.dset-orca.engrad-mp2.def2tzvp.scfp) ****
----------------
ORBITAL ENERGIES
----------------

  NO   OCC          E(Eh)            E(eV) 
   0   2.0000     -20.562786      -559.5419 
   1   2.0000      -1.340640       -36.4807 
   2   2.0000      -0.705715       -19.2035 
   3   2.0000      -0.577354       -15.7106 
   4   2.0000      -0.506553       -13.7840 
   5   0.0000       0.125817         3.4237 
   6   0.0000       0.195722         5.3259 
   7   0.0000       0.519373        14.1328 
   8   0.0000       0.564241        15.3538 
   9   0.0000       0.597717        16.2647 
  10   0.0000       0.634065        17.2538 
  11   0.0000       0.766696        20.8629 
  12   0.0000       0.769700        20.9446 
  13   0.0000       1.411622        38.4122 
  14   0.0000       1.436255        39.0825 
  15   0.0000       1.549293        42.1584 
  16   0.0000       1.784359        48.5549 
  17   0.0000       1.900657        51.7195 
  18   0.0000       2.013977        54.8031 
  19   0.0000       2.290461        62.3266 
  20   0.0000       2.336616        63.5826 
  21   0.0000       2.384312        64.8804 
  22   0.0000       2.576798        70.1182 
  23   0.0000       2.683667        73.0263 
  24   0.0000       2.926186        79.6256 
  25   0.0000       2.967830        80.7588 
  26   0.0000       3.023309        82.2684 
  27   0.0000       3.139139        85.4203 
  28   0.0000       3.999048       108.8196 
  29   0.0000       4.305491       117.1584 
  30   0.0000       5.549149       151.0000 
  31   0.0000       5.647209       153.6684 
  32   0.0000       5.818465       158.3285 
  33   0.0000       5.850116       159.1898 
  34   0.0000       5.903578       160.6445 
  35   0.0000       6.465916       175.9465 
  36   0.0000       6.696245       182.2141 
  37   0.0000       6.825792       185.7392 
  38   0.0000       6.887107       187.4077 
  39   0.0000       6.936366       188.7481 
  40   0.0000       7.365989       200.4388 
  41   0.0000       7.494791       203.9436 
  42   0.0000      44.813074      1219.4257 

                    ********************************
                    * MULLIKEN POPULATION ANALYSIS *
                    ********************************

-----------------------
MULLIKEN ATOMIC CHARGES
-----------------------
   0 O :   -0.693397
   1 H :    0.345571
   2 H :    0.347826
Sum of atomic charges:   -0.0000000

--------------------------------
MULLIKEN REDUCED ORBITAL CHARGES
--------------------------------
  0 O s       :     3.813975  s :     3.813975
      pz      :     1.559283  p :     4.851692
      px      :     1.859816
      py      :     1.432593
      dz2     :     0.008945  d :     0.026181
      dxz     :     0.006413
      dyz     :     0.000416
      dx2y2   :     0.007746
      dxy     :     0.002662
      f0      :     0.000098  f :     0.001549
      f+1     :     0.000493
      f-1     :     0.000248
      f+2     :     0.000117
      f-2     :     0.000095
      f+3     :     0.000139
      f-3     :     0.000360
  1 H s       :     0.608830  s :     0.608830
      pz      :     0.018716  p :     0.045599
      px      :     0.015915
      py      :     0.010968
  2 H s       :     0.608713  s :     0.608713
      pz      :     0.010941  p :     0.043461
      px      :     0.013526
      py      :     0.018994


                     *******************************
                     * LOEWDIN POPULATION ANALYSIS *
                     *******************************

----------------------
LOEWDIN ATOMIC CHARGES
----------------------
   0 O :   -0.333308
   1 H :    0.159683
   2 H :    0.173625

-------------------------------
LOEWDIN REDUCED ORBITAL CHARGES
-------------------------------
  0 O s       :     3.475114  s :     3.475114
      pz      :     1.558824  p :     4.822411
      px      :     1.823186
      py      :     1.440401
      dz2     :     0.012024  d :     0.033578
      dxz     :     0.007752
      dyz     :     0.000772
      dx2y2   :     0.010552
      dxy     :     0.002478
      f0      :     0.000151  f :     0.002205
      f+1     :     0.000745
      f-1     :     0.000424
      f+2     :     0.000096
      f-2     :     0.000115
      f+3     :     0.000166
      f-3     :     0.000508
  1 H s       :     0.679382  s :     0.679382
      pz      :     0.076610  p :     0.160935
      px      :     0.053476
      py      :     0.030848
  2 H s       :     0.674832  s :     0.674832
      pz      :     0.030392  p :     0.151543
      px      :     0.040664
      py      :     0.080488


                      *****************************
                      * MAYER POPULATION ANALYSIS *
                      *****************************

  NA   - Mulliken gross atomic population
  ZA   - Total nuclear charge
  QA   - Mulliken gross atomic charge
  VA   - Mayer's total valence
  BVA  - Mayer's bonded valence
  FA   - Mayer's free valence

  ATOM       NA         ZA         QA         VA         BVA        FA
  0 O      8.6934     8.0000    -0.6934     1.7776     1.7776    -0.0000
  1 H      0.6544     1.0000     0.3456     0.8950     0.8950     0.0000
  2 H      0.6522     1.0000     0.3478     0.8921     0.8921     0.0000

  Mayer bond orders larger than 0.100000
B(  0-O ,  1-H ) :   0.8902 B(  0-O ,  2-H ) :   0.8874 

-------
TIMINGS
-------

Total SCF time: 0 days 0 hours 0 min 1 sec 

Total time                  ....       1.376 sec
Sum of individual times     ....       1.192 sec  ( 86.6%)

Fock matrix formation       ....       1.059 sec  ( 76.9%)
Diagonalization             ....       0.002 sec  (  0.2%)
Density matrix formation    ....       0.003 sec  (  0.2%)
Population analysis         ....       0.002 sec  (  0.1%)
Initial guess               ....       0.071 sec  (  5.2%)
Orbital Transformation      ....       0.000 sec  (  0.0%)
Orbital Orthonormalization  ....       0.000 sec  (  0.0%)
DIIS solution               ....       0.001 sec  (  0.1%)
SOSCF solution              ....       0.038 sec  (  2.7%)


           ************************************************************
           *        Program running with 12 parallel MPI-processes    *
           *              working on a common directory               *
           ************************************************************

------------------------------------------------------------------------------
                                ORCA  MP2 
------------------------------------------------------------------------------

Freezing NCore=2 chemical core electrons
MP2 will be done in the AO integral direct mode
The Q1-step will be done using symmetric double matrices
Dimension of the basis                    ...   43
Memory devoted for MP2                    ... 8000 MB   
Memory needed for all in one shot         ...    1 MB
Number of MOs that can be treated together... 25776      
MP2 density construction                  ... relaxed
The MP2 gradient is requested => amplitudes will be stored on disk
Total number of MOs              ...    4
Number of MOs treated per batch  ...    1 
Number of batches necessary      ...    1 
OPERATORS   0/  0 PASS   0
-----------------------------------------------
 MP2 CORRELATION ENERGY   :     -0.255369786 Eh
-----------------------------------------------


---------------------
MP2 DENSITY FORMATION
---------------------

Completing the external part of the density      ... done
Storing the unrelaxed density                    ... done

Calculating G(D)                                 ... done
Completing the Lagrangian                        ... done
Solving the Z-vector equations                   ... 

------------------------------------------------------------------------------
                           ORCA CP-SCF CALCULATION
------------------------------------------------------------------------------

Input orbitals are from        ... 4h2o.temelso.etal.dset.1h2o.dset-orca.engrad-mp2.def2tzvp.gbw
Input Perturbation             ... 4h2o.temelso.etal.dset.1h2o.dset-orca.engrad-mp2.def2tzvp.pin.tmp
Wavefunction output            ... 4h2o.temelso.etal.dset.1h2o.dset-orca.engrad-mp2.def2tzvp.pout.tmp
Perturbation mode              ... Real perturbation (singlet)
Solver                         ... POPLE
Max. number of iterations      ... 128
Convergence tolerance          ... 1.000e-08
Integral handling              ... Direct
Number of perturbations        ... 1
Number of operators            ... 1
Orbital ranges used for CP-SCF:
 Operator 0:  Orbitals   0...  4  to   5... 42
Variables per vector in CP-SCF ... 190
Number of vectors sought       ... 1
     CP-SCF ITERATION   0: 
     CP-SCF ITERATION   1:      0.000106127580
     CP-SCF ITERATION   2:      0.000001943541
     CP-SCF ITERATION   3:      0.000000051607
     CP-SCF ITERATION   4:      0.000000000670
                                                 ... done
Finalizing the relaxed density                   ... done
Transforming P to the AO basis                   ... done
Storing the relaxed density                      ... done

------------------------------------
ENERGY WEIGHTED DENSITY FINALIZATION
------------------------------------

Gathering the parts of the W-matrix              ...                                                      done
Forming the Z-density                            ... done
Transforming Z to the AO basis                   ... done
Calculating G(Z)                                 ... done
Finalizing the W-matrix                          ...                                                      done
Transforming W to the AO basis and storing       ... done

                *********************************************
                * UNRELAXED MP2 DENSITY POPULATION ANALYSIS *
                *********************************************

------------------------------------------------------------------------------
                           ORCA POPULATION ANALYSIS
------------------------------------------------------------------------------
Input electron density              ... 4h2o.temelso.etal.dset.1h2o.dset-orca.engrad-mp2.def2tzvp.pmp2ur
BaseName (.gbw .S,...)              ... 4h2o.temelso.etal.dset.1h2o.dset-orca.engrad-mp2.def2tzvp

                    ********************************
                    * MULLIKEN POPULATION ANALYSIS *
                    ********************************

-----------------------
MULLIKEN ATOMIC CHARGES
-----------------------
   0 O :   -0.688717
   1 H :    0.343358
   2 H :    0.345359
Sum of atomic charges:   -0.0000000

--------------------------------
MULLIKEN REDUCED ORBITAL CHARGES
--------------------------------
  0 O s       :     3.809161  s :     3.809161
      pz      :     1.550195  p :     4.823022
      px      :     1.848464
      py      :     1.424363
      dz2     :     0.014066  d :     0.052443
      dxz     :     0.011665
      dyz     :     0.005741
      dx2y2   :     0.012893
      dxy     :     0.008079
      f0      :     0.000471  f :     0.004091
      f+1     :     0.000852
      f-1     :     0.000611
      f+2     :     0.000483
      f-2     :     0.000452
      f+3     :     0.000504
      f-3     :     0.000717
  1 H s       :     0.609395  s :     0.609395
      pz      :     0.018923  p :     0.047247
      px      :     0.016659
      py      :     0.011665
  2 H s       :     0.609546  s :     0.609546
      pz      :     0.011726  p :     0.045095
      px      :     0.014404
      py      :     0.018965


                     *******************************
                     * LOEWDIN POPULATION ANALYSIS *
                     *******************************

----------------------
LOEWDIN ATOMIC CHARGES
----------------------
   0 O :   -0.330634
   1 H :    0.158496
   2 H :    0.172138

-------------------------------
LOEWDIN REDUCED ORBITAL CHARGES
-------------------------------
  0 O s       :     3.471348  s :     3.471348
      pz      :     1.549484  p :     4.793454
      px      :     1.812212
      py      :     1.431758
      dz2     :     0.017564  d :     0.060894
      dxz     :     0.013369
      dyz     :     0.005923
      dx2y2   :     0.016217
      dxy     :     0.007820
      f0      :     0.000541  f :     0.004938
      f+1     :     0.001158
      f-1     :     0.000827
      f+2     :     0.000474
      f-2     :     0.000484
      f+3     :     0.000548
      f-3     :     0.000907
  1 H s       :     0.677418  s :     0.677418
      pz      :     0.078101  p :     0.164086
      px      :     0.054435
      py      :     0.031550
  2 H s       :     0.673108  s :     0.673108
      pz      :     0.031143  p :     0.154753
      px      :     0.041507
      py      :     0.082103


                      *****************************
                      * MAYER POPULATION ANALYSIS *
                      *****************************

  NA   - Mulliken gross atomic population
  ZA   - Total nuclear charge
  QA   - Mulliken gross atomic charge
  VA   - Mayer's total valence
  BVA  - Mayer's bonded valence
  FA   - Mayer's free valence

  ATOM       NA         ZA         QA         VA         BVA        FA
  0 O      8.6887     8.0000    -0.6887     2.0801     1.6955     0.3846
  1 H      0.6566     1.0000     0.3434     0.9008     0.8542     0.0466
  2 H      0.6546     1.0000     0.3454     0.8981     0.8500     0.0480

  Mayer bond orders larger than 0.100000
B(  0-O ,  1-H ) :   0.8498 B(  0-O ,  2-H ) :   0.8457 


                *******************************************
                * RELAXED MP2 DENSITY POPULATION ANALYSIS *
                *******************************************

------------------------------------------------------------------------------
                           ORCA POPULATION ANALYSIS
------------------------------------------------------------------------------
Input electron density              ... 4h2o.temelso.etal.dset.1h2o.dset-orca.engrad-mp2.def2tzvp.pmp2re
BaseName (.gbw .S,...)              ... 4h2o.temelso.etal.dset.1h2o.dset-orca.engrad-mp2.def2tzvp

                    ********************************
                    * MULLIKEN POPULATION ANALYSIS *
                    ********************************

-----------------------
MULLIKEN ATOMIC CHARGES
-----------------------
   0 O :   -0.676140
   1 H :    0.336953
   2 H :    0.339187
Sum of atomic charges:   -0.0000000

--------------------------------
MULLIKEN REDUCED ORBITAL CHARGES
--------------------------------
  0 O s       :     3.814181  s :     3.814181
      pz      :     1.544763  p :     4.807830
      px      :     1.844249
      py      :     1.418818
      dz2     :     0.013105  d :     0.050113
      dxz     :     0.011150
      dyz     :     0.005791
      dx2y2   :     0.012078
      dxy     :     0.007989
      f0      :     0.000465  f :     0.004016
      f+1     :     0.000827
      f-1     :     0.000595
      f+2     :     0.000480
      f-2     :     0.000449
      f+3     :     0.000499
      f-3     :     0.000701
  1 H s       :     0.615051  s :     0.615051
      pz      :     0.018418  p :     0.047996
      px      :     0.017386
      py      :     0.012192
  2 H s       :     0.615010  s :     0.615010
      pz      :     0.012442  p :     0.045802
      px      :     0.015397
      py      :     0.017963


                     *******************************
                     * LOEWDIN POPULATION ANALYSIS *
                     *******************************

----------------------
LOEWDIN ATOMIC CHARGES
----------------------
   0 O :   -0.334006
   1 H :    0.160118
   2 H :    0.173889

-------------------------------
LOEWDIN REDUCED ORBITAL CHARGES
-------------------------------
  0 O s       :     3.473578  s :     3.473578
      pz      :     1.550823  p :     4.795961
      px      :     1.810390
      py      :     1.434747
      dz2     :     0.017004  d :     0.059511
      dxz     :     0.013137
      dyz     :     0.005844
      dx2y2   :     0.015738
      dxy     :     0.007788
      f0      :     0.000541  f :     0.004956
      f+1     :     0.001162
      f-1     :     0.000831
      f+2     :     0.000476
      f-2     :     0.000485
      f+3     :     0.000548
      f-3     :     0.000914
  1 H s       :     0.675696  s :     0.675696
      pz      :     0.077489  p :     0.164186
      px      :     0.055166
      py      :     0.031531
  2 H s       :     0.671160  s :     0.671160
      pz      :     0.031514  p :     0.154951
      px      :     0.042485
      py      :     0.080952


                      *****************************
                      * MAYER POPULATION ANALYSIS *
                      *****************************

  NA   - Mulliken gross atomic population
  ZA   - Total nuclear charge
  QA   - Mulliken gross atomic charge
  VA   - Mayer's total valence
  BVA  - Mayer's bonded valence
  FA   - Mayer's free valence

  ATOM       NA         ZA         QA         VA         BVA        FA
  0 O      8.6761     8.0000    -0.6761     2.0841     1.7043     0.3799
  1 H      0.6630     1.0000     0.3370     0.9054     0.8587     0.0467
  2 H      0.6608     1.0000     0.3392     0.9026     0.8544     0.0482

  Mayer bond orders larger than 0.100000
B(  0-O ,  1-H ) :   0.8543 B(  0-O ,  2-H ) :   0.8500 


----------------------------------
MP2 DERIVATIVE INTEGRAL GENERATION
----------------------------------


Input Wavefunction Amplitudes       ... 4h2o.temelso.etal.dset.1h2o.dset-orca.engrad-mp2.def2tzvp.mp2tsaa.tmp
Input Correlated Electron Density   ... 4h2o.temelso.etal.dset.1h2o.dset-orca.engrad-mp2.def2tzvp.pmp2re
Input Energy Weighted Density       ... 4h2o.temelso.etal.dset.1h2o.dset-orca.engrad-mp2.def2tzvp.wmp2.tmp
Input SCF Electron Density          ... 4h2o.temelso.etal.dset.1h2o.dset-orca.engrad-mp2.def2tzvp.scfp

One-Electron Terms    ...
                        ... One-Electron Terms done
Prescreening matrices              ... done

Batch handling in the gradient evaluation:
Memory available                      ... 8000.0 MB
Memory per occupied orbital in Q2     ...    0.1 MB
Memory per occupied orbital in Q3     ...    0.0 MB
Total memory requirement per |i>      ...    0.1 MB
Max. Number of orbitals possible      ... 110341
Number of orbitals treated per batch  ...      4
Number of batches to be done          ...      1
Batch   0: i=    1 ...     4

---------------------------------------
MP2 TOTAL ENERGY:      -76.312568563 Eh
---------------------------------------

The final MP2 gradient
  0:   0.00383800  -0.01953553  -0.00155520
  1:  -0.00078254  -0.00161633  -0.00210182
  2:  -0.00305545   0.02115186   0.00365702

-----------------------------------
NORM OF THE MP2 GRADIENT:  0.029606
-----------------------------------

-------------------------   --------------------
FINAL SINGLE POINT ENERGY       -76.312568562874
-------------------------   --------------------


                            ***************************************
                            *     ORCA property calculations      *
                            ***************************************

                                    ---------------------
                                    Active property flags
                                    ---------------------
   (+) Dipole Moment


------------------------------------------------------------------------------
                       ORCA ELECTRIC PROPERTIES CALCULATION
------------------------------------------------------------------------------

Dipole Moment Calculation                       ... on
Quadrupole Moment Calculation                   ... off
Polarizability Calculation                      ... off
GBWName                                         ... 4h2o.temelso.etal.dset.1h2o.dset-orca.engrad-mp2.def2tzvp.gbw
Electron density file                           ... 4h2o.temelso.etal.dset.1h2o.dset-orca.engrad-mp2.def2tzvp.scfp
The origin for moment calculation is the CENTER OF MASS  = (-0.000009,  0.000011 -0.000011)

-------------
DIPOLE MOMENT
-------------
                                X             Y             Z
Electronic contribution:      0.06624      -0.09048       0.07972
Nuclear contribution   :     -0.48393       0.62335      -0.59872
                        -----------------------------------------
Total Dipole Moment    :     -0.41770       0.53288      -0.51900
                        -----------------------------------------
Magnitude (a.u.)       :      0.85311
Magnitude (Debye)      :      2.16843



--------------------
Rotational spectrum 
--------------------
 
Rotational constants in cm-1:    26.617911    14.007321     9.177686 
Rotational constants in MHz : 797984.882406 419928.924206 275140.105467 

 Dipole components along the rotational axes: 
x,y,z [a.u.] :    -0.032890    -0.852473     0.000000 
x,y,z [Debye]:    -0.083599    -2.166814     0.000000 

 

                         *** MP2 UNRELAXED DENSITY ***

------------------------------------------------------------------------------
                       ORCA ELECTRIC PROPERTIES CALCULATION
------------------------------------------------------------------------------

Dipole Moment Calculation                       ... on
Quadrupole Moment Calculation                   ... off
Polarizability Calculation                      ... off
GBWName                                         ... 4h2o.temelso.etal.dset.1h2o.dset-orca.engrad-mp2.def2tzvp.gbw
Electron density file                           ... 4h2o.temelso.etal.dset.1h2o.dset-orca.engrad-mp2.def2tzvp.pmp2ur
The origin for moment calculation is the CENTER OF MASS  = (-0.000009,  0.000011 -0.000011)

-------------
DIPOLE MOMENT
-------------
                                X             Y             Z
Electronic contribution:      0.07096      -0.09689       0.08542
Nuclear contribution   :     -0.48393       0.62335      -0.59872
                        -----------------------------------------
Total Dipole Moment    :     -0.41297       0.52646      -0.51329
                        -----------------------------------------
Magnitude (a.u.)       :      0.84332
Magnitude (Debye)      :      2.14354



--------------------
Rotational spectrum 
--------------------
 
Rotational constants in cm-1:    26.617911    14.007321     9.177686 
Rotational constants in MHz : 797984.882406 419928.924206 275140.105467 

 Dipole components along the rotational axes: 
x,y,z [a.u.] :    -0.032115    -0.842705     0.000000 
x,y,z [Debye]:    -0.081631    -2.141985     0.000000 

 

                           *** MP2 RELAXED DENSITY ***

------------------------------------------------------------------------------
                       ORCA ELECTRIC PROPERTIES CALCULATION
------------------------------------------------------------------------------

Dipole Moment Calculation                       ... on
Quadrupole Moment Calculation                   ... off
Polarizability Calculation                      ... off
GBWName                                         ... 4h2o.temelso.etal.dset.1h2o.dset-orca.engrad-mp2.def2tzvp.gbw
Electron density file                           ... 4h2o.temelso.etal.dset.1h2o.dset-orca.engrad-mp2.def2tzvp.pmp2re
The origin for moment calculation is the CENTER OF MASS  = (-0.000009,  0.000011 -0.000011)

-------------
DIPOLE MOMENT
-------------
                                X             Y             Z
Electronic contribution:      0.07617      -0.10315       0.09206
Nuclear contribution   :     -0.48393       0.62335      -0.59872
                        -----------------------------------------
Total Dipole Moment    :     -0.40776       0.52021      -0.50666
                        -----------------------------------------
Magnitude (a.u.)       :      0.83282
Magnitude (Debye)      :      2.11686



--------------------
Rotational spectrum 
--------------------
 
Rotational constants in cm-1:    26.617911    14.007321     9.177686 
Rotational constants in MHz : 797984.882406 419928.924206 275140.105467 

 Dipole components along the rotational axes: 
x,y,z [a.u.] :    -0.032106    -0.832199     0.000000 
x,y,z [Debye]:    -0.081607    -2.115282     0.000000 

 

Timings for individual modules:

Sum of individual times         ...        8.658 sec (=   0.144 min)
GTO integral calculation        ...        2.863 sec (=   0.048 min)  33.1 %
SCF iterations                  ...        3.456 sec (=   0.058 min)  39.9 %
MP2 module                      ...        2.339 sec (=   0.039 min)  27.0 %


                 $$$$$$$$$$$$$$$$  JOB NUMBER  2 $$$$$$$$$$$$$$


                     *******************************
                     * Energy+Gradient Calculation *
                     *******************************

---------------------------------
CARTESIAN COORDINATES (ANGSTROEM)
---------------------------------
  O      0.041718    0.043408   -0.028448
  H     -0.915882   -0.095392   -0.213148
  H      0.253618   -0.593692    0.664752

----------------------------
CARTESIAN COORDINATES (A.U.)
----------------------------
  NO LB      ZA    FRAG     MASS         X           Y           Z
   0 O     8.0000    0    15.999    0.078836    0.082029   -0.053759
   1 H     1.0000    0     1.008   -1.730765   -0.180265   -0.402792
   2 H     1.0000    0     1.008    0.479269   -1.121915    1.256199

--------------------------------
INTERNAL COORDINATES (ANGSTROEM)
--------------------------------
 O      0   0   0     0.000000000000     0.00000000     0.00000000
 H      1   0   0     0.985077301535     0.00000000     0.00000000
 H      1   2   0     0.965051428681   104.78007913     0.00000000

---------------------------
INTERNAL COORDINATES (A.U.)
---------------------------
 O      0   0   0     0.000000000000     0.00000000     0.00000000
 H      1   0   0     1.861526320644     0.00000000     0.00000000
 H      1   2   0     1.823682905357   104.78007913     0.00000000

---------------------
BASIS SET INFORMATION
---------------------
There are 2 groups of distinct atoms

 Group   1 Type O   : 11s6p2d1f contracted to 5s3p2d1f pattern {62111/411/11/1}
 Group   2 Type H   : 5s1p contracted to 3s1p pattern {311/1}

Atom   0O    basis set group =>   1
Atom   1H    basis set group =>   2
Atom   2H    basis set group =>   2


           ************************************************************
           *        Program running with 12 parallel MPI-processes    *
           *              working on a common directory               *
           ************************************************************
------------------------------------------------------------------------------
                           ORCA GTO INTEGRAL CALCULATION
------------------------------------------------------------------------------

                         BASIS SET STATISTICS AND STARTUP INFO

 # of primitive gaussian shells          ...   32
 # of primitive gaussian functions       ...   62
 # of contracted shells                  ...   19
 # of contracted basis functions         ...   43
 Highest angular momentum                ...    3
 Maximum contraction depth               ...    6
 Integral package used                   ... LIBINT
 Integral threshhold            Thresh   ...  2.500e-11
 Primitive cut-off              TCut     ...  2.500e-12


------------------------------ INTEGRAL EVALUATION ----------------------------


 * One electron integrals 
 Pre-screening matrix                    ... done
 Shell pair data                         ... done (   0.000 sec)



           ************************************************************
           *        Program running with 12 parallel MPI-processes    *
           *              working on a common directory               *
           ************************************************************
-------------------------------------------------------------------------------
                                 ORCA SCF
-------------------------------------------------------------------------------

------------
SCF SETTINGS
------------
Hamiltonian:
 Ab initio Hamiltonian  Method          .... Hartree-Fock(GTOs)


General Settings:
 Integral files         IntName         .... 4h2o.temelso.etal.dset.1h2o.dset-orca.engrad-mp2.def2tzvp_job2
 Hartree-Fock type      HFTyp           .... RHF
 Total Charge           Charge          ....    0
 Multiplicity           Mult            ....    1
 Number of Electrons    NEL             ....   10
 Basis Dimension        Dim             ....   43
 Nuclear Repulsion      ENuc            ....      9.0268060734 Eh

Convergence Acceleration:
 DIIS                   CNVDIIS         .... on
   Start iteration      DIISMaxIt       ....    12
   Startup error        DIISStart       ....  0.200000
   # of expansion vecs  DIISMaxEq       ....     5
   Bias factor          DIISBfac        ....   1.050
   Max. coefficient     DIISMaxC        ....  10.000
 Newton-Raphson         CNVNR           .... off
 SOSCF                  CNVSOSCF        .... on
   Start iteration      SOSCFMaxIt      ....   150
   Startup grad/error   SOSCFStart      ....  0.003300
 Level Shifting         CNVShift        .... on
   Level shift para.    LevelShift      ....    0.2500
   Turn off err/grad.   ShiftErr        ....    0.0010
 Zerner damping         CNVZerner       .... off
 Static damping         CNVDamp         .... on
   Fraction old density DampFac         ....    0.7000
   Max. Damping (<1)    DampMax         ....    0.9800
   Min. Damping (>=0)   DampMin         ....    0.0000
   Turn off err/grad.   DampErr         ....    0.1000
 Fernandez-Rico         CNVRico         .... off

SCF Procedure:
 Maximum # iterations   MaxIter         ....   125
 SCF integral mode      SCFMode         .... Direct
   Integral package                     .... LIBINT
 Reset frequency        DirectResetFreq ....    20
 Integral Threshold     Thresh          ....  2.500e-11 Eh
 Primitive CutOff       TCut            ....  2.500e-12 Eh

Convergence Tolerance:
 Convergence Check Mode ConvCheckMode   .... Total+1el-Energy
 Convergence forced     ConvForced      .... 1
 Energy Change          TolE            ....  1.000e-08 Eh
 1-El. energy change                    ....  1.000e-05 Eh
 Orbital Gradient       TolG            ....  1.000e-05
 Orbital Rotation angle TolX            ....  1.000e-05
 DIIS Error             TolErr          ....  5.000e-07


Diagonalization of the overlap matrix:
Smallest eigenvalue                        ... 8.932e-03
Time for diagonalization                   ...    0.001 sec
Threshold for overlap eigenvalues          ... 1.000e-08
Number of eigenvalues below threshold      ... 0
Time for construction of square roots      ...    0.000 sec
Total time needed                          ...    0.001 sec

---------------------
INITIAL GUESS: MOREAD
---------------------
Guess MOs are being read from file: 4h2o.temelso.etal.dset.1h2o.dset-orca.engrad-mp2.def2tzvp.gbw
Input geometry compatible with but different from current geometry
Input basis set matches current basis set (good)
MOs were renormalized
MOs were reorthogonalized (Cholesky)
                      ------------------
                      INITIAL GUESS DONE (   0.0 sec)
                      ------------------
--------------
SCF ITERATIONS
--------------
ITER       Energy         Delta-E        Max-DP      RMS-DP      [F,P]     Damp
               ***  Starting incremental Fock matrix formation  ***
  0    -75.2228632442   0.000000000000 0.07697869  0.00544893  0.5482002 0.7000
  1    -75.4108489897  -0.187985745470 0.06428325  0.00500291  0.4822073 0.7000
  2    -75.5623813547  -0.151532365032 0.05866739  0.00407940  0.4035159 0.7000
  3    -75.6817705827  -0.119389227974 0.05092232  0.00327907  0.3299452 0.7000
  4    -75.7747938163  -0.093023233567 0.04286285  0.00264036  0.2670033 0.7000
  5    -75.8462846896  -0.071490873266 0.03558218  0.00213488  0.2151061 0.7000
                               ***Turning on DIIS***
  6    -75.9005689570  -0.054284267466 0.02931963  0.00173471  0.1730047 0.7000
  7    -75.9665702406  -0.066001283623 0.02814790  0.00165590  0.1391091 0.7000
  8    -75.9979056375  -0.031335396834 0.02578734  0.00154483  0.1076846 0.7000
  9    -76.0138099649  -0.015904327437 0.07028044  0.00432771  0.0799969 0.0000
 10    -76.0583457372  -0.044535772280 0.00797046  0.00060076  0.0095510 0.0000
 11    -76.0575034937   0.000842243519 0.00549292  0.00035239  0.0040921 0.0000
                      *** Initiating the SOSCF procedure ***
                           *** Shutting down DIIS ***
                      *** Re-Reading the Fockian *** 
                      *** Removing any level shift *** 
ITER      Energy       Delta-E        Grad      Rot      Max-DP    RMS-DP
 12    -76.05724444   0.0002590587  0.001974  0.001974  0.002663  0.000153
               *** Restarting incremental Fock matrix formation ***
 13    -76.05718831   0.0000561253  0.000497  0.000708  0.001179  0.000063
 14    -76.05719000  -0.0000016928  0.000204  0.000543  0.000778  0.000043
 15    -76.05719046  -0.0000004557  0.000037  0.000034  0.000045  0.000003
 16    -76.05719047  -0.0000000096  0.000011  0.000017  0.000038  0.000002
 17    -76.05719047  -0.0000000014  0.000005  0.000003  0.000006  0.000000
                 **** Energy Check signals convergence ****
              ***Rediagonalizing the Fockian in SOSCF/NRSCF***

               *****************************************************
               *                     SUCCESS                       *
               *           SCF CONVERGED AFTER  18 CYCLES          *
               *****************************************************


----------------
TOTAL SCF ENERGY
----------------

Total Energy       :          -76.05719047 Eh           -2069.62137 eV

Components:
Nuclear Repulsion  :            9.02680607 Eh             245.63188 eV
Electronic Energy  :          -85.08399654 Eh           -2315.25325 eV
One Electron Energy:         -122.78199594 Eh           -3341.06797 eV
Two Electron Energy:           37.69799940 Eh            1025.81472 eV

Virial components:
Potential Energy   :         -151.99252537 Eh           -4135.92688 eV
Kinetic Energy     :           75.93533490 Eh            2066.30551 eV
Virial Ratio       :            2.00160473


---------------
SCF CONVERGENCE
---------------

  Last Energy change         ...   -1.5986e-10  Tolerance :   1.0000e-08
  Last MAX-Density change    ...    1.1932e-06  Tolerance :   1.0000e-07
  Last RMS-Density change    ...    8.0595e-08  Tolerance :   5.0000e-09
  Last Orbital Gradient      ...    4.8374e-07  Tolerance :   1.0000e-05
  Last Orbital Rotation      ...    4.6443e-07  Tolerance :   1.0000e-05

             **** THE GBW FILE WAS UPDATED (4h2o.temelso.etal.dset.1h2o.dset-orca.engrad-mp2.def2tzvp_job2.gbw) ****
             **** DENSITY FILE WAS UPDATED (4h2o.temelso.etal.dset.1h2o.dset-orca.engrad-mp2.def2tzvp_job2.scfp) ****
             **** ENERGY FILE WAS UPDATED (4h2o.temelso.etal.dset.1h2o.dset-orca.engrad-mp2.def2tzvp_job2.en.tmp) ****
             **** THE GBW FILE WAS UPDATED (4h2o.temelso.etal.dset.1h2o.dset-orca.engrad-mp2.def2tzvp_job2.gbw) ****
             **** DENSITY FILE WAS UPDATED (4h2o.temelso.etal.dset.1h2o.dset-orca.engrad-mp2.def2tzvp_job2.scfp) ****
----------------
ORBITAL ENERGIES
----------------

  NO   OCC          E(Eh)            E(eV) 
   0   2.0000     -20.562799      -559.5422 
   1   2.0000      -1.340617       -36.4800 
   2   2.0000      -0.705672       -19.2023 
   3   2.0000      -0.577356       -15.7107 
   4   2.0000      -0.506551       -13.7840 
   5   0.0000       0.125810         3.4235 
   6   0.0000       0.195718         5.3257 
   7   0.0000       0.519344        14.1321 
   8   0.0000       0.564244        15.3539 
   9   0.0000       0.597717        16.2647 
  10   0.0000       0.634053        17.2535 
  11   0.0000       0.766685        20.8626 
  12   0.0000       0.769691        20.9443 
  13   0.0000       1.411560        38.4105 
  14   0.0000       1.436256        39.0825 
  15   0.0000       1.549260        42.1575 
  16   0.0000       1.784405        48.5561 
  17   0.0000       1.900693        51.7205 
  18   0.0000       2.013957        54.8026 
  19   0.0000       2.290532        62.3285 
  20   0.0000       2.336602        63.5822 
  21   0.0000       2.384242        64.8785 
  22   0.0000       2.576837        70.1193 
  23   0.0000       2.683549        73.0231 
  24   0.0000       2.926016        79.6209 
  25   0.0000       2.967742        80.7564 
  26   0.0000       3.023298        82.2681 
  27   0.0000       3.139106        85.4194 
  28   0.0000       3.999063       108.8200 
  29   0.0000       4.305345       117.1544 
  30   0.0000       5.549148       151.0000 
  31   0.0000       5.647223       153.6688 
  32   0.0000       5.818396       158.3266 
  33   0.0000       5.850091       159.1891 
  34   0.0000       5.903435       160.6406 
  35   0.0000       6.465705       175.9408 
  36   0.0000       6.696088       182.2098 
  37   0.0000       6.825801       185.7395 
  38   0.0000       6.887080       187.4070 
  39   0.0000       6.936408       188.7493 
  40   0.0000       7.365765       200.4326 
  41   0.0000       7.494844       203.9451 
  42   0.0000      44.813080      1219.4259 

                    ********************************
                    * MULLIKEN POPULATION ANALYSIS *
                    ********************************

-----------------------
MULLIKEN ATOMIC CHARGES
-----------------------
   0 O :   -0.693391
   1 H :    0.347824
   2 H :    0.345567
Sum of atomic charges:   -0.0000000

--------------------------------
MULLIKEN REDUCED ORBITAL CHARGES
--------------------------------
  0 O s       :     3.814010  s :     3.814010
      pz      :     1.675424  p :     4.851650
      px      :     1.439573
      py      :     1.736653
      dz2     :     0.004401  d :     0.026183
      dxz     :     0.000581
      dyz     :     0.008810
      dx2y2   :     0.009599
      dxy     :     0.002792
      f0      :     0.000126  f :     0.001549
      f+1     :     0.000209
      f-1     :     0.000376
      f+2     :     0.000321
      f-2     :     0.000154
      f+3     :     0.000300
      f-3     :     0.000064
  1 H s       :     0.608723  s :     0.608723
      pz      :     0.012390  p :     0.043453
      px      :     0.018937
      py      :     0.012126
  2 H s       :     0.608837  s :     0.608837
      pz      :     0.017716  p :     0.045596
      px      :     0.011017
      py      :     0.016862


                     *******************************
                     * LOEWDIN POPULATION ANALYSIS *
                     *******************************

----------------------
LOEWDIN ATOMIC CHARGES
----------------------
   0 O :   -0.333371
   1 H :    0.173671
   2 H :    0.159700

-------------------------------
LOEWDIN REDUCED ORBITAL CHARGES
-------------------------------
  0 O s       :     3.475193  s :     3.475193
      pz      :     1.655788  p :     4.822396
      px      :     1.446597
      py      :     1.720011
      dz2     :     0.005303  d :     0.033578
      dxz     :     0.001068
      dyz     :     0.011505
      dx2y2   :     0.013092
      dxy     :     0.002610
      f0      :     0.000131  f :     0.002204
      f+1     :     0.000287
      f-1     :     0.000533
      f+2     :     0.000403
      f-2     :     0.000186
      f+3     :     0.000506
      f-3     :     0.000157
  1 H s       :     0.674821  s :     0.674821
      pz      :     0.035123  p :     0.151508
      px      :     0.080018
      py      :     0.036367
  2 H s       :     0.679380  s :     0.679380
      pz      :     0.066160  p :     0.160920
      px      :     0.031011
      py      :     0.063749


                      *****************************
                      * MAYER POPULATION ANALYSIS *
                      *****************************

  NA   - Mulliken gross atomic population
  ZA   - Total nuclear charge
  QA   - Mulliken gross atomic charge
  VA   - Mayer's total valence
  BVA  - Mayer's bonded valence
  FA   - Mayer's free valence

  ATOM       NA         ZA         QA         VA         BVA        FA
  0 O      8.6934     8.0000    -0.6934     1.7776     1.7776    -0.0000
  1 H      0.6522     1.0000     0.3478     0.8921     0.8921    -0.0000
  2 H      0.6544     1.0000     0.3456     0.8950     0.8950    -0.0000

  Mayer bond orders larger than 0.100000
B(  0-O ,  1-H ) :   0.8874 B(  0-O ,  2-H ) :   0.8902 

-------
TIMINGS
-------

Total SCF time: 0 days 0 hours 0 min 1 sec 

Total time                  ....       1.725 sec
Sum of individual times     ....       1.562 sec  ( 90.5%)

Fock matrix formation       ....       1.551 sec  ( 89.9%)
Diagonalization             ....       0.004 sec  (  0.2%)
Density matrix formation    ....       0.001 sec  (  0.1%)
Population analysis         ....       0.001 sec  (  0.0%)
Initial guess               ....       0.001 sec  (  0.1%)
Orbital Transformation      ....       0.000 sec  (  0.0%)
Orbital Orthonormalization  ....       0.000 sec  (  0.0%)
DIIS solution               ....       0.002 sec  (  0.1%)
SOSCF solution              ....       0.001 sec  (  0.1%)


           ************************************************************
           *        Program running with 12 parallel MPI-processes    *
           *              working on a common directory               *
           ************************************************************

------------------------------------------------------------------------------
                                ORCA  MP2 
------------------------------------------------------------------------------

Freezing NCore=2 chemical core electrons
MP2 will be done in the AO integral direct mode
The Q1-step will be done using symmetric double matrices
Dimension of the basis                    ...   43
Memory devoted for MP2                    ... 8000 MB   
Memory needed for all in one shot         ...    1 MB
Number of MOs that can be treated together... 25776      
MP2 density construction                  ... relaxed
The MP2 gradient is requested => amplitudes will be stored on disk
Total number of MOs              ...    4
Number of MOs treated per batch  ...    1 
Number of batches necessary      ...    1 
OPERATORS   0/  0 PASS   0
-----------------------------------------------
 MP2 CORRELATION ENERGY   :     -0.255374883 Eh
-----------------------------------------------


---------------------
MP2 DENSITY FORMATION
---------------------

Completing the external part of the density      ... done
Storing the unrelaxed density                    ... done

Calculating G(D)                                 ... done
Completing the Lagrangian                        ... done
Solving the Z-vector equations                   ... 

------------------------------------------------------------------------------
                           ORCA CP-SCF CALCULATION
------------------------------------------------------------------------------

Input orbitals are from        ... 4h2o.temelso.etal.dset.1h2o.dset-orca.engrad-mp2.def2tzvp_job2.gbw
Input Perturbation             ... 4h2o.temelso.etal.dset.1h2o.dset-orca.engrad-mp2.def2tzvp_job2.pin.tmp
Wavefunction output            ... 4h2o.temelso.etal.dset.1h2o.dset-orca.engrad-mp2.def2tzvp_job2.pout.tmp
Perturbation mode              ... Real perturbation (singlet)
Solver                         ... POPLE
Max. number of iterations      ... 128
Convergence tolerance          ... 1.000e-08
Integral handling              ... Direct
Number of perturbations        ... 1
Number of operators            ... 1
Orbital ranges used for CP-SCF:
 Operator 0:  Orbitals   0...  4  to   5... 42
Variables per vector in CP-SCF ... 190
Number of vectors sought       ... 1
     CP-SCF ITERATION   0: 
     CP-SCF ITERATION   1:      0.000106189633
     CP-SCF ITERATION   2:      0.000001944794
     CP-SCF ITERATION   3:      0.000000051653
     CP-SCF ITERATION   4:      0.000000000671
                                                 ... done
Finalizing the relaxed density                   ... done
Transforming P to the AO basis                   ... done
Storing the relaxed density                      ... done

------------------------------------
ENERGY WEIGHTED DENSITY FINALIZATION
------------------------------------

Gathering the parts of the W-matrix              ...                                                      done
Forming the Z-density                            ... done
Transforming Z to the AO basis                   ... done
Calculating G(Z)                                 ... done
Finalizing the W-matrix                          ...                                                      done
Transforming W to the AO basis and storing       ... done

                *********************************************
                * UNRELAXED MP2 DENSITY POPULATION ANALYSIS *
                *********************************************

------------------------------------------------------------------------------
                           ORCA POPULATION ANALYSIS
------------------------------------------------------------------------------
Input electron density              ... 4h2o.temelso.etal.dset.1h2o.dset-orca.engrad-mp2.def2tzvp_job2.pmp2ur
BaseName (.gbw .S,...)              ... 4h2o.temelso.etal.dset.1h2o.dset-orca.engrad-mp2.def2tzvp_job2

                    ********************************
                    * MULLIKEN POPULATION ANALYSIS *
                    ********************************

-----------------------
MULLIKEN ATOMIC CHARGES
-----------------------
   0 O :   -0.688709
   1 H :    0.345355
   2 H :    0.343354
Sum of atomic charges:   -0.0000000

--------------------------------
MULLIKEN REDUCED ORBITAL CHARGES
--------------------------------
  0 O s       :     3.809195  s :     3.809195
      pz      :     1.665588  p :     4.822979
      px      :     1.431293
      py      :     1.726099
      dz2     :     0.009758  d :     0.052445
      dxz     :     0.005963
      dyz     :     0.013932
      dx2y2   :     0.014655
      dxy     :     0.008137
      f0      :     0.000489  f :     0.004090
      f+1     :     0.000566
      f-1     :     0.000737
      f+2     :     0.000686
      f-2     :     0.000513
      f+3     :     0.000662
      f-3     :     0.000436
  1 H s       :     0.609557  s :     0.609557
      pz      :     0.013177  p :     0.045088
      px      :     0.018920
      py      :     0.012990
  2 H s       :     0.609403  s :     0.609403
      pz      :     0.018127  p :     0.047244
      px      :     0.011718
      py      :     0.017399


                     *******************************
                     * LOEWDIN POPULATION ANALYSIS *
                     *******************************

----------------------
LOEWDIN ATOMIC CHARGES
----------------------
   0 O :   -0.330696
   1 H :    0.172183
   2 H :    0.158513

-------------------------------
LOEWDIN REDUCED ORBITAL CHARGES
-------------------------------
  0 O s       :     3.471426  s :     3.471426
      pz      :     1.645950  p :     4.793438
      px      :     1.437916
      py      :     1.709573
      dz2     :     0.010744  d :     0.060894
      dxz     :     0.006346
      dyz     :     0.017271
      dx2y2   :     0.018685
      dxy     :     0.007849
      f0      :     0.000507  f :     0.004938
      f+1     :     0.000673
      f-1     :     0.000934
      f+2     :     0.000809
      f-2     :     0.000562
      f+3     :     0.000911
      f-3     :     0.000542
  1 H s       :     0.673098  s :     0.673098
      pz      :     0.035885  p :     0.154719
      px      :     0.081623
      py      :     0.037211
  2 H s       :     0.677416  s :     0.677416
      pz      :     0.067380  p :     0.164071
      px      :     0.031713
      py      :     0.064979


                      *****************************
                      * MAYER POPULATION ANALYSIS *
                      *****************************

  NA   - Mulliken gross atomic population
  ZA   - Total nuclear charge
  QA   - Mulliken gross atomic charge
  VA   - Mayer's total valence
  BVA  - Mayer's bonded valence
  FA   - Mayer's free valence

  ATOM       NA         ZA         QA         VA         BVA        FA
  0 O      8.6887     8.0000    -0.6887     2.0801     1.6955     0.3846
  1 H      0.6546     1.0000     0.3454     0.8981     0.8500     0.0481
  2 H      0.6566     1.0000     0.3434     0.9008     0.8542     0.0466

  Mayer bond orders larger than 0.100000
B(  0-O ,  1-H ) :   0.8457 B(  0-O ,  2-H ) :   0.8498 


                *******************************************
[...]
  VA   - Mayer's total valence
  BVA  - Mayer's bonded valence
  FA   - Mayer's free valence

  ATOM       NA         ZA         QA         VA         BVA        FA
  0 O      8.6846     8.0000    -0.6846     1.7858     1.7858     0.0000
  1 H      0.6580     1.0000     0.3420     0.8971     0.8971     0.0000
  2 H      0.6574     1.0000     0.3426     0.8963     0.8963    -0.0000

  Mayer bond orders larger than 0.100000
B(  0-O ,  1-H ) :   0.8933 B(  0-O ,  2-H ) :   0.8925 

-------
TIMINGS
-------

Total SCF time: 0 days 0 hours 0 min 1 sec 

Total time                  ....       1.654 sec
Sum of individual times     ....       1.489 sec  ( 90.1%)

Fock matrix formation       ....       1.479 sec  ( 89.5%)
Diagonalization             ....       0.004 sec  (  0.2%)
Density matrix formation    ....       0.001 sec  (  0.1%)
Population analysis         ....       0.001 sec  (  0.0%)
Initial guess               ....       0.001 sec  (  0.1%)
Orbital Transformation      ....       0.000 sec  (  0.0%)
Orbital Orthonormalization  ....       0.000 sec  (  0.0%)
DIIS solution               ....       0.002 sec  (  0.1%)
SOSCF solution              ....       0.001 sec  (  0.1%)


           ************************************************************
           *        Program running with 12 parallel MPI-processes    *
           *              working on a common directory               *
           ************************************************************

------------------------------------------------------------------------------
                                ORCA  MP2 
------------------------------------------------------------------------------

Freezing NCore=2 chemical core electrons
MP2 will be done in the AO integral direct mode
The Q1-step will be done using symmetric double matrices
Dimension of the basis                    ...   43
Memory devoted for MP2                    ... 8000 MB   
Memory needed for all in one shot         ...    1 MB
Number of MOs that can be treated together... 25776      
MP2 density construction                  ... relaxed
The MP2 gradient is requested => amplitudes will be stored on disk
Total number of MOs              ...    4
Number of MOs treated per batch  ...    1 
Number of batches necessary      ...    1 
OPERATORS   0/  0 PASS   0
-----------------------------------------------
 MP2 CORRELATION ENERGY   :     -0.255362305 Eh
-----------------------------------------------


---------------------
MP2 DENSITY FORMATION
---------------------

Completing the external part of the density      ... done
Storing the unrelaxed density                    ... done

Calculating G(D)                                 ... done
Completing the Lagrangian                        ... done
Solving the Z-vector equations                   ... 

------------------------------------------------------------------------------
                           ORCA CP-SCF CALCULATION
------------------------------------------------------------------------------

Input orbitals are from        ... 4h2o.temelso.etal.dset.1h2o.dset-orca.engrad-mp2.def2tzvp_job12.gbw
Input Perturbation             ... 4h2o.temelso.etal.dset.1h2o.dset-orca.engrad-mp2.def2tzvp_job12.pin.tmp
Wavefunction output            ... 4h2o.temelso.etal.dset.1h2o.dset-orca.engrad-mp2.def2tzvp_job12.pout.tmp
Perturbation mode              ... Real perturbation (singlet)
Solver                         ... POPLE
Max. number of iterations      ... 128
Convergence tolerance          ... 1.000e-08
Integral handling              ... Direct
Number of perturbations        ... 1
Number of operators            ... 1
Orbital ranges used for CP-SCF:
 Operator 0:  Orbitals   0...  4  to   5... 42
Variables per vector in CP-SCF ... 190
Number of vectors sought       ... 1
     CP-SCF ITERATION   0: 
     CP-SCF ITERATION   1:      0.000106185881
     CP-SCF ITERATION   2:      0.000002011727
     CP-SCF ITERATION   3:      0.000000056258
     CP-SCF ITERATION   4:      0.000000000724
                                                 ... done
Finalizing the relaxed density                   ... done
Transforming P to the AO basis                   ... done
Storing the relaxed density                      ... done

------------------------------------
ENERGY WEIGHTED DENSITY FINALIZATION
------------------------------------

Gathering the parts of the W-matrix              ...                                                      done
Forming the Z-density                            ... done
Transforming Z to the AO basis                   ... done
Calculating G(Z)                                 ... done
Finalizing the W-matrix                          ...                                                      done
Transforming W to the AO basis and storing       ... done

                *********************************************
                * UNRELAXED MP2 DENSITY POPULATION ANALYSIS *
                *********************************************

------------------------------------------------------------------------------
                           ORCA POPULATION ANALYSIS
------------------------------------------------------------------------------
Input electron density              ... 4h2o.temelso.etal.dset.1h2o.dset-orca.engrad-mp2.def2tzvp_job12.pmp2ur
BaseName (.gbw .S,...)              ... 4h2o.temelso.etal.dset.1h2o.dset-orca.engrad-mp2.def2tzvp_job12

                    ********************************
                    * MULLIKEN POPULATION ANALYSIS *
                    ********************************

-----------------------
MULLIKEN ATOMIC CHARGES
-----------------------
   0 O :   -0.679813
   1 H :    0.339632
   2 H :    0.340181
Sum of atomic charges:    0.0000000

--------------------------------
MULLIKEN REDUCED ORBITAL CHARGES
--------------------------------
  0 O s       :     3.812416  s :     3.812416
      pz      :     1.557515  p :     4.809973
      px      :     1.557356
      py      :     1.695101
      dz2     :     0.007069  d :     0.053353
      dxz     :     0.009887
      dyz     :     0.013775
      dx2y2   :     0.014278
      dxy     :     0.008343
      f0      :     0.000552  f :     0.004071
      f+1     :     0.000397
      f-1     :     0.000728
      f+2     :     0.001016
      f-2     :     0.000426
      f+3     :     0.000507
      f-3     :     0.000445
  1 H s       :     0.613359  s :     0.613359
      pz      :     0.017325  p :     0.047010
      px      :     0.012154
      py      :     0.017530
  2 H s       :     0.613415  s :     0.613415
      pz      :     0.014718  p :     0.046403
      px      :     0.018381
      py      :     0.013304


                     *******************************
                     * LOEWDIN POPULATION ANALYSIS *
                     *******************************

----------------------
LOEWDIN ATOMIC CHARGES
----------------------
   0 O :   -0.326828
   1 H :    0.161523
   2 H :    0.165305

-------------------------------
LOEWDIN REDUCED ORBITAL CHARGES
-------------------------------
  0 O s       :     3.473641  s :     3.473641
      pz      :     1.542034  p :     4.786288
      px      :     1.561383
      py      :     1.682870
      dz2     :     0.007125  d :     0.061879
      dxz     :     0.012488
      dyz     :     0.018108
      dx2y2   :     0.017076
      dxy     :     0.007082
      f0      :     0.000684  f :     0.005021
      f+1     :     0.000373
      f-1     :     0.000919
      f+2     :     0.001370
      f-2     :     0.000432
      f+3     :     0.000680
      f-3     :     0.000564
  1 H s       :     0.676769  s :     0.676769
      pz      :     0.061563  p :     0.161708
      px      :     0.033514
      py      :     0.066630
  2 H s       :     0.675598  s :     0.675598
      pz      :     0.044152  p :     0.159097
      px      :     0.076794
      py      :     0.038150


                      *****************************
                      * MAYER POPULATION ANALYSIS *
                      *****************************

  NA   - Mulliken gross atomic population
  ZA   - Total nuclear charge
  QA   - Mulliken gross atomic charge
  VA   - Mayer's total valence
  BVA  - Mayer's bonded valence
  FA   - Mayer's free valence

  ATOM       NA         ZA         QA         VA         BVA        FA
  0 O      8.6798     8.0000    -0.6798     2.0865     1.7031     0.3833
  1 H      0.6604     1.0000     0.3396     0.9031     0.8556     0.0475
  2 H      0.6598     1.0000     0.3402     0.9024     0.8544     0.0479

  Mayer bond orders larger than 0.100000
B(  0-O ,  1-H ) :   0.8521 B(  0-O ,  2-H ) :   0.8510 


                *******************************************
                * RELAXED MP2 DENSITY POPULATION ANALYSIS *
                *******************************************

------------------------------------------------------------------------------
                           ORCA POPULATION ANALYSIS
------------------------------------------------------------------------------
Input electron density              ... 4h2o.temelso.etal.dset.1h2o.dset-orca.engrad-mp2.def2tzvp_job12.pmp2re
BaseName (.gbw .S,...)              ... 4h2o.temelso.etal.dset.1h2o.dset-orca.engrad-mp2.def2tzvp_job12

                    ********************************
                    * MULLIKEN POPULATION ANALYSIS *
                    ********************************

-----------------------
MULLIKEN ATOMIC CHARGES
-----------------------
   0 O :   -0.666683
   1 H :    0.333028
   2 H :    0.333655
Sum of atomic charges:    0.0000000

--------------------------------
MULLIKEN REDUCED ORBITAL CHARGES
--------------------------------
  0 O s       :     3.818221  s :     3.818221
      pz      :     1.554224  p :     4.793504
      px      :     1.550376
      py      :     1.688904
      dz2     :     0.006973  d :     0.050963
      dxz     :     0.009364
      dyz     :     0.012778
      dx2y2   :     0.013445
      dxy     :     0.008404
      f0      :     0.000543  f :     0.003995
      f+1     :     0.000398
      f-1     :     0.000713
      f+2     :     0.000980
      f-2     :     0.000425
      f+3     :     0.000497
      f-3     :     0.000439
  1 H s       :     0.619170  s :     0.619170
      pz      :     0.017237  p :     0.047803
      px      :     0.012947
      py      :     0.017618
  2 H s       :     0.619159  s :     0.619159
      pz      :     0.015112  p :     0.047186
      px      :     0.017873
      py      :     0.014201


                     *******************************
                     * LOEWDIN POPULATION ANALYSIS *
                     *******************************

----------------------
LOEWDIN ATOMIC CHARGES
----------------------
   0 O :   -0.330078
   1 H :    0.163128
   2 H :    0.166950

-------------------------------
LOEWDIN REDUCED ORBITAL CHARGES
-------------------------------
  0 O s       :     3.476027  s :     3.476027
      pz      :     1.544343  p :     4.788506
      px      :     1.562048
      py      :     1.682114
      dz2     :     0.007062  d :     0.060508
      dxz     :     0.012111
      dyz     :     0.017551
      dx2y2   :     0.016598
      dxy     :     0.007186
      f0      :     0.000684  f :     0.005037
      f+1     :     0.000373
      f-1     :     0.000925
      f+2     :     0.001386
      f-2     :     0.000429
      f+3     :     0.000680
      f-3     :     0.000561
  1 H s       :     0.674968  s :     0.674968
      pz      :     0.061161  p :     0.161903
      px      :     0.033985
      py      :     0.066757
  2 H s       :     0.673729  s :     0.673729
      pz      :     0.044123  p :     0.159322
      px      :     0.076306
      py      :     0.038893


                      *****************************
                      * MAYER POPULATION ANALYSIS *
                      *****************************

  NA   - Mulliken gross atomic population
  ZA   - Total nuclear charge
  QA   - Mulliken gross atomic charge
  VA   - Mayer's total valence
  BVA  - Mayer's bonded valence
  FA   - Mayer's free valence

  ATOM       NA         ZA         QA         VA         BVA        FA
  0 O      8.6667     8.0000    -0.6667     2.0905     1.7119     0.3786
  1 H      0.6670     1.0000     0.3330     0.9077     0.8601     0.0476
  2 H      0.6663     1.0000     0.3337     0.9070     0.8589     0.0480

  Mayer bond orders larger than 0.100000
B(  0-O ,  1-H ) :   0.8566 B(  0-O ,  2-H ) :   0.8554 


----------------------------------
MP2 DERIVATIVE INTEGRAL GENERATION
----------------------------------


Input Wavefunction Amplitudes       ... 4h2o.temelso.etal.dset.1h2o.dset-orca.engrad-mp2.def2tzvp_job12.mp2tsaa.tmp
Input Correlated Electron Density   ... 4h2o.temelso.etal.dset.1h2o.dset-orca.engrad-mp2.def2tzvp_job12.pmp2re
Input Energy Weighted Density       ... 4h2o.temelso.etal.dset.1h2o.dset-orca.engrad-mp2.def2tzvp_job12.wmp2.tmp
Input SCF Electron Density          ... 4h2o.temelso.etal.dset.1h2o.dset-orca.engrad-mp2.def2tzvp_job12.scfp

One-Electron Terms    ...
                        ... One-Electron Terms done
Prescreening matrices              ... done

Batch handling in the gradient evaluation:
Memory available                      ... 8000.0 MB
Memory per occupied orbital in Q2     ...    0.1 MB
Memory per occupied orbital in Q3     ...    0.0 MB
Total memory requirement per |i>      ...    0.1 MB
Max. Number of orbitals possible      ... 110341
Number of orbitals treated per batch  ...      4
Number of batches to be done          ...      1
Batch   0: i=    1 ...     4

---------------------------------------
MP2 TOTAL ENERGY:      -76.312730313 Eh
---------------------------------------

The final MP2 gradient
  0:  -0.01368650  -0.00894178  -0.00008785
  1:   0.00332939   0.00491934  -0.00283864
  2:   0.01035711   0.00402245   0.00292649

-----------------------------------
NORM OF THE MP2 GRADIENT:  0.021039
-----------------------------------

-------------------------   --------------------
FINAL SINGLE POINT ENERGY       -76.312730312559
-------------------------   --------------------


                            ***************************************
                            *     ORCA property calculations      *
                            ***************************************

                                    ---------------------
                                    Active property flags
                                    ---------------------
   (+) Dipole Moment


------------------------------------------------------------------------------
                       ORCA ELECTRIC PROPERTIES CALCULATION
------------------------------------------------------------------------------

Dipole Moment Calculation                       ... on
Quadrupole Moment Calculation                   ... off
Polarizability Calculation                      ... off
GBWName                                         ... 4h2o.temelso.etal.dset.1h2o.dset-orca.engrad-mp2.def2tzvp_job12.gbw
Electron density file                           ... 4h2o.temelso.etal.dset.1h2o.dset-orca.engrad-mp2.def2tzvp_job12.scfp
The origin for moment calculation is the CENTER OF MASS  = ( 0.000013,  0.000012 -0.000004)

-------------
DIPOLE MOMENT
-------------
                                X             Y             Z
Electronic contribution:     -0.10879      -0.09801       0.02737
Nuclear contribution   :      0.73947       0.67521      -0.19544
                        -----------------------------------------
Total Dipole Moment    :      0.63068       0.57720      -0.16807
                        -----------------------------------------
Magnitude (a.u.)       :      0.87130
Magnitude (Debye)      :      2.21466



--------------------
Rotational spectrum 
--------------------
 
Rotational constants in cm-1:    25.069664    14.673851     9.256064 
Rotational constants in MHz : 751569.609475 439910.976542 277489.809506 

 Dipole components along the rotational axes: 
x,y,z [a.u.] :     0.010653    -0.871231    -0.000000 
x,y,z [Debye]:     0.027079    -2.214494    -0.000001 

 

                         *** MP2 UNRELAXED DENSITY ***

------------------------------------------------------------------------------
                       ORCA ELECTRIC PROPERTIES CALCULATION
------------------------------------------------------------------------------

Dipole Moment Calculation                       ... on
Quadrupole Moment Calculation                   ... off
Polarizability Calculation                      ... off
GBWName                                         ... 4h2o.temelso.etal.dset.1h2o.dset-orca.engrad-mp2.def2tzvp_job12.gbw
Electron density file                           ... 4h2o.temelso.etal.dset.1h2o.dset-orca.engrad-mp2.def2tzvp_job12.pmp2ur
The origin for moment calculation is the CENTER OF MASS  = ( 0.000013,  0.000012 -0.000004)

-------------
DIPOLE MOMENT
-------------
                                X             Y             Z
Electronic contribution:     -0.11625      -0.10475       0.02926
Nuclear contribution   :      0.73947       0.67521      -0.19544
                        -----------------------------------------
Total Dipole Moment    :      0.62322       0.57047      -0.16618
                        -----------------------------------------
Magnitude (a.u.)       :      0.86107
Magnitude (Debye)      :      2.18867



--------------------
Rotational spectrum 
--------------------
 
Rotational constants in cm-1:    25.069664    14.673851     9.256064 
Rotational constants in MHz : 751569.609475 439910.976542 277489.809506 

 Dipole components along the rotational axes: 
x,y,z [a.u.] :     0.010420    -0.861008    -0.000000 
x,y,z [Debye]:     0.026485    -2.188509    -0.000001 

 

                           *** MP2 RELAXED DENSITY ***

------------------------------------------------------------------------------
                       ORCA ELECTRIC PROPERTIES CALCULATION
------------------------------------------------------------------------------

Dipole Moment Calculation                       ... on
Quadrupole Moment Calculation                   ... off
Polarizability Calculation                      ... off
GBWName                                         ... 4h2o.temelso.etal.dset.1h2o.dset-orca.engrad-mp2.def2tzvp_job12.gbw
Electron density file                           ... 4h2o.temelso.etal.dset.1h2o.dset-orca.engrad-mp2.def2tzvp_job12.pmp2re
The origin for moment calculation is the CENTER OF MASS  = ( 0.000013,  0.000012 -0.000004)

-------------
DIPOLE MOMENT
-------------
                                X             Y             Z
Electronic contribution:     -0.12446      -0.11236       0.03155
Nuclear contribution   :      0.73947       0.67521      -0.19544
                        -----------------------------------------
Total Dipole Moment    :      0.61501       0.56285      -0.16388
                        -----------------------------------------
Magnitude (a.u.)       :      0.84965
Magnitude (Debye)      :      2.15963



--------------------
Rotational spectrum 
--------------------
 
Rotational constants in cm-1:    25.069664    14.673851     9.256064 
Rotational constants in MHz : 751569.609475 439910.976542 277489.809506 

 Dipole components along the rotational axes: 
x,y,z [a.u.] :     0.010398    -0.849582    -0.000000 
x,y,z [Debye]:     0.026429    -2.159467    -0.000001 

 

Timings for individual modules:

Sum of individual times         ...        4.521 sec (=   0.075 min)
GTO integral calculation        ...        0.823 sec (=   0.014 min)  18.2 %
SCF iterations                  ...        2.263 sec (=   0.038 min)  50.1 %
MP2 module                      ...        1.435 sec (=   0.024 min)  31.7 %



                             ****ORCA TERMINATED NORMALLY****
TOTAL RUN TIME: 0 days 0 hours 1 minutes 9 seconds 57 msec
