
                                 *****************
                                 * O   R   C   A *
                                 *****************

           --- An Ab Initio, DFT and Semiempirical electronic structure package ---

                  #######################################################
                  #                        -***-                        #
                  #          Department of theory and spectroscopy      #
                  #               Directorship: Frank Neese             #
                  #        Max Planck Institute fuer Kohlenforschung    #
                  #                Kaiser Wilhelm Platz 1               #
                  #                 D-45470 Muelheim/Ruhr               #
                  #                      Germany                        #
                  #                                                     #
                  #                  All rights reserved                #
                  #                        -***-                        #
                  #######################################################


                         Program Version 4.2.0 -  RELEASE  -


 With contributions from (in alphabetic order):
   Daniel Aravena         : Magnetic Suceptibility
   Michael Atanasov       : Ab Initio Ligand Field Theory (pilot matlab implementation)
   Alexander A. Auer      : GIAO ZORA, VPT2
   Ute Becker             : Parallelization
   Giovanni Bistoni       : ED, misc. LED, open-shell LED, HFLED
   Martin Brehm           : Molecular dynamics
   Dmytro Bykov           : SCF Hessian
   Vijay G. Chilkuri      : MRCI spin determinant printing, contributions to CSF-ICE
   Dipayan Datta          : RHF DLPNO-CCSD density
   Achintya Kumar Dutta   : EOM-CC, STEOM-CC
   Dmitry Ganyushin       : Spin-Orbit,Spin-Spin,Magnetic field MRCI
   Miquel Garcia          : C-PCM Hessian, Gaussian charge scheme
   Yang Guo               : DLPNO-NEVPT2, CIM, IAO-localization
   Andreas Hansen         : Spin unrestricted coupled pair/coupled cluster methods
   Benjamin Helmich-Paris : CASSCF linear response (MC-RPA)
   Lee Huntington         : MR-EOM, pCC
   Robert Izsak           : Overlap fitted RIJCOSX, COSX-SCS-MP3, EOM
   Christian Kollmar      : KDIIS, OOCD, Brueckner-CCSD(T), CCSD density
   Simone Kossmann        : Meta GGA functionals, TD-DFT gradient, OOMP2, MP2 Hessian
   Martin Krupicka        : AUTO-CI
   Lucas Lang             : DCDCAS
   Dagmar Lenk            : GEPOL surface, SMD
   Dimitrios Liakos       : Extrapolation schemes; Compound Job, initial MDCI parallelization
   Dimitrios Manganas     : Further ROCIS development; embedding schemes
   Dimitrios Pantazis     : SARC Basis sets
   Taras Petrenko         : DFT Hessian,TD-DFT gradient, ASA, ECA, R-Raman, ABS, FL, XAS/XES, NRVS
   Peter Pinski           : DLPNO-MP2, DLPNO-MP2 Gradient
   Christoph Reimann      : Effective Core Potentials
   Marius Retegan         : Local ZFS, SOC
   Christoph Riplinger    : Optimizer, TS searches, QM/MM, DLPNO-CCSD(T), (RO)-DLPNO pert. Triples
   Tobias Risthaus        : Range-separated hybrids, TD-DFT gradient, RPA, STAB
   Michael Roemelt        : Original ROCIS implementation
   Masaaki Saitow         : Open-shell DLPNO-CCSD energy and density
   Barbara Sandhoefer     : DKH picture change effects
   Avijit Sen             : IP-ROCIS
   Kantharuban Sivalingam : CASSCF convergence, NEVPT2, FIC-MRCI
   Bernardo de Souza      : ESD, SOC TD-DFT
   Georgi Stoychev        : AutoAux, RI-MP2 NMR
   Willem Van den Heuvel  : Paramagnetic NMR
   Boris Wezisla          : Elementary symmetry handling
   Frank Wennmohs         : Technical directorship


 We gratefully acknowledge several colleagues who have allowed us to
 interface, adapt or use parts of their codes:
   Stefan Grimme, W. Hujo, H. Kruse,             : VdW corrections, initial TS optimization,
                  C. Bannwarth                     DFT functionals, gCP, sTDA/sTD-DF
   Ed Valeev, F. Pavosevic, A. Kumar             : LibInt (2-el integral package), F12 methods
   Garnet Chan, S. Sharma, J. Yang, R. Olivares  : DMRG
   Ulf Ekstrom                                   : XCFun DFT Library
   Mihaly Kallay                                 : mrcc  (arbitrary order and MRCC methods)
   Andreas Klamt, Michael Diedenhofen            : otool_cosmo (COSMO solvation model)
   Jiri Pittner, Ondrej Demel                    : Mk-CCSD
   Frank Weinhold                                : gennbo (NPA and NBO analysis)
   Christopher J. Cramer and Donald G. Truhlar   : smd solvation model
   Lars Goerigk                                  : TD-DFT with DH, B97 family of functionals
   V. Asgeirsson, H. Jonsson                     : NEB implementation
   FAccTs GmbH                                   : IRC, NEB, NEB-TS, Multilevel, MM, QM/MM, CI optimization
   S Lehtola, MJT Oliveira, MAL Marques          : LibXC Library


 Your calculation uses the libint2 library for the computation of 2-el integrals
 For citations please refer to: http://libint.valeyev.net

 Your ORCA version has been built with support for libXC version: 4.2.3
 For citations please refer to: https://tddft.org/programs/libxc/

 This ORCA versions uses:
   CBLAS   interface :  Fast vector & matrix operations
   LAPACKE interface :  Fast linear algebra routines
   SCALAPACK package :  Parallel linear algebra routines


----- Orbital basis set information -----
Your calculation utilizes the basis: def2-TZVP
   F. Weigend and R. Ahlrichs, Phys. Chem. Chem. Phys. 7, 3297 (2005).

================================================================================
                                        WARNINGS
                       Please study these warnings very carefully!
================================================================================


WARNING: The frozen-core approximation for MP2-gradient calculations is turned on by default.

INFO   : the flag for use of LIBINT has been found!

----- Orbital basis set information -----
Your calculation utilizes the basis: def2-TZVP
   F. Weigend and R. Ahlrichs, Phys. Chem. Chem. Phys. 7, 3297 (2005).

================================================================================
                                        WARNINGS
                       Please study these warnings very carefully!
================================================================================


WARNING: The frozen-core approximation for MP2-gradient calculations is turned on by default.

INFO   : the flag for use of LIBINT has been found!

----- Orbital basis set information -----
Your calculation utilizes the basis: def2-TZVP
   F. Weigend and R. Ahlrichs, Phys. Chem. Chem. Phys. 7, 3297 (2005).

================================================================================
                                        WARNINGS
                       Please study these warnings very carefully!
================================================================================


WARNING: The frozen-core approximation for MP2-gradient calculations is turned on by default.

INFO   : the flag for use of LIBINT has been found!

----- Orbital basis set information -----
Your calculation utilizes the basis: def2-TZVP
   F. Weigend and R. Ahlrichs, Phys. Chem. Chem. Phys. 7, 3297 (2005).

================================================================================
                                        WARNINGS
                       Please study these warnings very carefully!
================================================================================


WARNING: The frozen-core approximation for MP2-gradient calculations is turned on by default.

INFO   : the flag for use of LIBINT has been found!

----- Orbital basis set information -----
Your calculation utilizes the basis: def2-TZVP
   F. Weigend and R. Ahlrichs, Phys. Chem. Chem. Phys. 7, 3297 (2005).

================================================================================
                                        WARNINGS
                       Please study these warnings very carefully!
================================================================================


WARNING: The frozen-core approximation for MP2-gradient calculations is turned on by default.

INFO   : the flag for use of LIBINT has been found!

----- Orbital basis set information -----
Your calculation utilizes the basis: def2-TZVP
   F. Weigend and R. Ahlrichs, Phys. Chem. Chem. Phys. 7, 3297 (2005).

================================================================================
                                        WARNINGS
                       Please study these warnings very carefully!
================================================================================


WARNING: The frozen-core approximation for MP2-gradient calculations is turned on by default.

INFO   : the flag for use of LIBINT has been found!

----- Orbital basis set information -----
Your calculation utilizes the basis: def2-TZVP
   F. Weigend and R. Ahlrichs, Phys. Chem. Chem. Phys. 7, 3297 (2005).

================================================================================
                                        WARNINGS
                       Please study these warnings very carefully!
================================================================================


WARNING: The frozen-core approximation for MP2-gradient calculations is turned on by default.

INFO   : the flag for use of LIBINT has been found!

----- Orbital basis set information -----
Your calculation utilizes the basis: def2-TZVP
   F. Weigend and R. Ahlrichs, Phys. Chem. Chem. Phys. 7, 3297 (2005).

================================================================================
                                        WARNINGS
                       Please study these warnings very carefully!
================================================================================


WARNING: The frozen-core approximation for MP2-gradient calculations is turned on by default.

INFO   : the flag for use of LIBINT has been found!

----- Orbital basis set information -----
Your calculation utilizes the basis: def2-TZVP
   F. Weigend and R. Ahlrichs, Phys. Chem. Chem. Phys. 7, 3297 (2005).

================================================================================
                                        WARNINGS
                       Please study these warnings very carefully!
================================================================================


WARNING: The frozen-core approximation for MP2-gradient calculations is turned on by default.

INFO   : the flag for use of LIBINT has been found!

----- Orbital basis set information -----
Your calculation utilizes the basis: def2-TZVP
   F. Weigend and R. Ahlrichs, Phys. Chem. Chem. Phys. 7, 3297 (2005).

================================================================================
                                        WARNINGS
                       Please study these warnings very carefully!
================================================================================


WARNING: The frozen-core approximation for MP2-gradient calculations is turned on by default.

INFO   : the flag for use of LIBINT has been found!

----- Orbital basis set information -----
Your calculation utilizes the basis: def2-TZVP
   F. Weigend and R. Ahlrichs, Phys. Chem. Chem. Phys. 7, 3297 (2005).

================================================================================
                                        WARNINGS
                       Please study these warnings very carefully!
================================================================================


WARNING: The frozen-core approximation for MP2-gradient calculations is turned on by default.

INFO   : the flag for use of LIBINT has been found!

----- Orbital basis set information -----
Your calculation utilizes the basis: def2-TZVP
   F. Weigend and R. Ahlrichs, Phys. Chem. Chem. Phys. 7, 3297 (2005).

================================================================================
                                        WARNINGS
                       Please study these warnings very carefully!
================================================================================


WARNING: The frozen-core approximation for MP2-gradient calculations is turned on by default.

INFO   : the flag for use of LIBINT has been found!

----- Orbital basis set information -----
Your calculation utilizes the basis: def2-TZVP
   F. Weigend and R. Ahlrichs, Phys. Chem. Chem. Phys. 7, 3297 (2005).

================================================================================
                                        WARNINGS
                       Please study these warnings very carefully!
================================================================================


WARNING: The frozen-core approximation for MP2-gradient calculations is turned on by default.

INFO   : the flag for use of LIBINT has been found!

----- Orbital basis set information -----
Your calculation utilizes the basis: def2-TZVP
   F. Weigend and R. Ahlrichs, Phys. Chem. Chem. Phys. 7, 3297 (2005).

================================================================================
                                        WARNINGS
                       Please study these warnings very carefully!
================================================================================


WARNING: The frozen-core approximation for MP2-gradient calculations is turned on by default.

INFO   : the flag for use of LIBINT has been found!

----- Orbital basis set information -----
Your calculation utilizes the basis: def2-TZVP
   F. Weigend and R. Ahlrichs, Phys. Chem. Chem. Phys. 7, 3297 (2005).

================================================================================
                                        WARNINGS
                       Please study these warnings very carefully!
================================================================================


WARNING: The frozen-core approximation for MP2-gradient calculations is turned on by default.

INFO   : the flag for use of LIBINT has been found!

----- Orbital basis set information -----
Your calculation utilizes the basis: def2-TZVP
   F. Weigend and R. Ahlrichs, Phys. Chem. Chem. Phys. 7, 3297 (2005).

================================================================================
                                        WARNINGS
                       Please study these warnings very carefully!
================================================================================


WARNING: The frozen-core approximation for MP2-gradient calculations is turned on by default.

INFO   : the flag for use of LIBINT has been found!

================================================================================
                                       INPUT FILE
================================================================================
NAME = 16h2o.yoo.etal.boat.b.1h2o.dset-orca.engrad-mp2.def2tzvp.inp
|  1> # 16h2o.yoo.etal.boat.b.1h2o.dset-orca.engrad-mp2.def2tzvp
|  2> ! MP2 def2-TZVP EnGrad TightSCF FrozenCore
|  3> 
|  4> %pal
|  5>     nprocs 6
|  6> end
|  7> 
|  8> %maxcore 8000
|  9> 
| 10> %scf
| 11>     ConvForced true
| 12> end
| 13> 
| 14> *xyz 0 1
| 15> O  -0.017510030   0.573244670  -1.880417680
| 16> H  -0.017511080  -0.356659160  -1.566506460
| 17> H  -0.902468370   0.728418280  -2.260527680
| 18> *
| 19> 
| 20> 
| 21> $new_job
| 22> 
| 23> # 16h2o.yoo.etal.boat.b.1h2o.dset-orca.engrad-mp2.def2tzvp
| 24> ! MP2 def2-TZVP EnGrad TightSCF FrozenCore
| 25> 
| 26> %pal
| 27>     nprocs 6
| 28> end
| 29> 
| 30> %maxcore 8000
| 31> 
| 32> %scf
| 33>     ConvForced true
| 34> end
| 35> 
| 36> *xyz 0 1
| 37> O   2.710977890  -1.007649920   2.453583990
| 38> H   3.095340150  -1.237775820   3.304402510
| 39> H   3.217836140  -0.217371200   2.127506060
| 40> *
| 41> 
| 42> 
| 43> $new_job
| 44> 
| 45> # 16h2o.yoo.etal.boat.b.1h2o.dset-orca.engrad-mp2.def2tzvp
| 46> ! MP2 def2-TZVP EnGrad TightSCF FrozenCore
| 47> 
| 48> %pal
| 49>     nprocs 6
| 50> end
| 51> 
| 52> %maxcore 8000
| 53> 
| 54> %scf
| 55>     ConvForced true
| 56> end
| 57> 
| 58> *xyz 0 1
| 59> O  -4.028921630  -1.127597820  -1.284667630
| 60> H  -3.624752380  -0.420841470  -1.818437440
| 61> H  -4.302124920  -0.677252940  -0.465947470
| 62> *
| 63> 
| 64> 
| 65> $new_job
| 66> 
| 67> # 16h2o.yoo.etal.boat.b.1h2o.dset-orca.engrad-mp2.def2tzvp
| 68> ! MP2 def2-TZVP EnGrad TightSCF FrozenCore
| 69> 
| 70> %pal
| 71>     nprocs 6
| 72> end
| 73> 
| 74> %maxcore 8000
| 75> 
| 76> %scf
| 77>     ConvForced true
| 78> end
| 79> 
| 80> *xyz 0 1
| 81> O  -2.704896140   1.134525770  -2.411615390
| 82> H  -2.804906650   1.640168540  -1.559560500
| 83> H  -3.075139180   1.692874700  -3.101559620
| 84> *
| 85> 
| 86> 
| 87> $new_job
| 88> 
| 89> # 16h2o.yoo.etal.boat.b.1h2o.dset-orca.engrad-mp2.def2tzvp
| 90> ! MP2 def2-TZVP EnGrad TightSCF FrozenCore
| 91> 
| 92> %pal
| 93>     nprocs 6
| 94> end
| 95> 
| 96> %maxcore 8000
| 97> 
| 98> %scf
| 99>     ConvForced true
|100> end
|101> 
|102> *xyz 0 1
|103> O   0.036642070  -0.556939210   1.849706880
|104> H   0.930759800  -0.692183920   2.219352370
|105> H   0.014737380   0.373062460   1.536336060
|106> *
|107> 
|108> 
|109> $new_job
|110> 
|111> # 16h2o.yoo.etal.boat.b.1h2o.dset-orca.engrad-mp2.def2tzvp
|112> ! MP2 def2-TZVP EnGrad TightSCF FrozenCore
|113> 
|114> %pal
|115>     nprocs 6
|116> end
|117> 
|118> %maxcore 8000
|119> 
|120> %scf
|121>     ConvForced true
|122> end
|123> 
|124> *xyz 0 1
|125> O   4.030566160   1.013739010   1.348232470
|126> H   3.521087820   1.813154810   1.126004480
|127> H   4.301309590   0.656627280   0.483926140
|128> *
|129> 
|130> 
|131> $new_job
|132> 
|133> # 16h2o.yoo.etal.boat.b.1h2o.dset-orca.engrad-mp2.def2tzvp
|134> ! MP2 def2-TZVP EnGrad TightSCF FrozenCore
|135> 
|136> %pal
|137>     nprocs 6
|138> end
|139> 
|140> %maxcore 8000
|141> 
|142> %scf
|143>     ConvForced true
|144> end
|145> 
|146> *xyz 0 1
|147> O  -2.502998510  -1.692390920   2.126407180
|148> H  -1.601495380  -1.326166150   2.192177720
|149> H  -2.454503240  -2.330520070   1.395114260
|150> *
|151> 
|152> 
|153> $new_job
|154> 
|155> # 16h2o.yoo.etal.boat.b.1h2o.dset-orca.engrad-mp2.def2tzvp
|156> ! MP2 def2-TZVP EnGrad TightSCF FrozenCore
|157> 
|158> %pal
|159>     nprocs 6
|160> end
|161> 
|162> %maxcore 8000
|163> 
|164> %scf
|165>     ConvForced true
|166> end
|167> 
|168> *xyz 0 1
|169> O   2.838146000  -2.263536120  -0.138730120
|170> H   1.899811180  -2.286791770  -0.402796420
|171> H   2.813410950  -2.051539230   0.809438010
|172> *
|173> 
|174> 
|175> $new_job
|176> 
|177> # 16h2o.yoo.etal.boat.b.1h2o.dset-orca.engrad-mp2.def2tzvp
|178> ! MP2 def2-TZVP EnGrad TightSCF FrozenCore
|179> 
|180> %pal
|181>     nprocs 6
|182> end
|183> 
|184> %maxcore 8000
|185> 
|186> %scf
|187>     ConvForced true
|188> end
|189> 
|190> *xyz 0 1
|191> O  -2.414228350  -3.052942980  -0.415541590
|192> H  -2.729000630  -3.919664690  -0.687548060
|193> H  -3.034566120  -2.392689920  -0.822159190
|194> *
|195> 
|196> 
|197> $new_job
|198> 
|199> # 16h2o.yoo.etal.boat.b.1h2o.dset-orca.engrad-mp2.def2tzvp
|200> ! MP2 def2-TZVP EnGrad TightSCF FrozenCore
|201> 
|202> %pal
|203>     nprocs 6
|204> end
|205> 
|206> %maxcore 8000
|207> 
|208> %scf
|209>     ConvForced true
|210> end
|211> 
|212> *xyz 0 1
|213> O   2.515723360   1.778954740  -2.000857960
|214> H   1.652429200   1.352191620  -2.149488420
|215> H   3.139528900   1.042384330  -1.868032090
|216> *
|217> 
|218> 
|219> $new_job
|220> 
|221> # 16h2o.yoo.etal.boat.b.1h2o.dset-orca.engrad-mp2.def2tzvp
|222> ! MP2 def2-TZVP EnGrad TightSCF FrozenCore
|223> 
|224> %pal
|225>     nprocs 6
|226> end
|227> 
|228> %maxcore 8000
|229> 
|230> %scf
|231>     ConvForced true
|232> end
|233> 
|234> *xyz 0 1
|235> O   2.394165620   3.094502760   0.295580090
|236> H   2.635243310   4.021878780   0.214380780
|237> H   2.470452610   2.705308080  -0.617546500
|238> *
|239> 
|240> 
|241> $new_job
|242> 
|243> # 16h2o.yoo.etal.boat.b.1h2o.dset-orca.engrad-mp2.def2tzvp
|244> ! MP2 def2-TZVP EnGrad TightSCF FrozenCore
|245> 
|246> %pal
|247>     nprocs 6
|248> end
|249> 
|250> %maxcore 8000
|251> 
|252> %scf
|253>     ConvForced true
|254> end
|255> 
|256> *xyz 0 1
|257> O  -0.118796780   1.863412090   0.558787180
|258> H  -0.042407130   1.457940650  -0.333750430
|259> H   0.657441220   2.450573430   0.618030400
|260> *
|261> 
|262> 
|263> $new_job
|264> 
|265> # 16h2o.yoo.etal.boat.b.1h2o.dset-orca.engrad-mp2.def2tzvp
|266> ! MP2 def2-TZVP EnGrad TightSCF FrozenCore
|267> 
|268> %pal
|269>     nprocs 6
|270> end
|271> 
|272> %maxcore 8000
|273> 
|274> %scf
|275>     ConvForced true
|276> end
|277> 
|278> *xyz 0 1
|279> O  -2.856893130   2.235015450  -0.006053840
|280> H  -1.950109880   2.266134990   0.348554180
|281> H  -3.334753900   1.599732010   0.557436650
|282> *
|283> 
|284> 
|285> $new_job
|286> 
|287> # 16h2o.yoo.etal.boat.b.1h2o.dset-orca.engrad-mp2.def2tzvp
|288> ! MP2 def2-TZVP EnGrad TightSCF FrozenCore
|289> 
|290> %pal
|291>     nprocs 6
|292> end
|293> 
|294> %maxcore 8000
|295> 
|296> %scf
|297>     ConvForced true
|298> end
|299> 
|300> *xyz 0 1
|301> O  -4.238936560   0.123091700   1.259056120
|302> H  -4.967739430   0.226879490   1.877485830
|303> H  -3.616055280  -0.530301490   1.674653570
|304> *
|305> 
|306> 
|307> $new_job
|308> 
|309> # 16h2o.yoo.etal.boat.b.1h2o.dset-orca.engrad-mp2.def2tzvp
|310> ! MP2 def2-TZVP EnGrad TightSCF FrozenCore
|311> 
|312> %pal
|313>     nprocs 6
|314> end
|315> 
|316> %maxcore 8000
|317> 
|318> %scf
|319>     ConvForced true
|320> end
|321> 
|322> *xyz 0 1
|323> O   4.267375430  -0.273424570  -1.171620400
|324> H   3.752967870  -1.067260270  -0.868274570
|325> H   5.021742090  -0.616076610  -1.659299840
|326> *
|327> 
|328> 
|329> $new_job
|330> 
|331> # 16h2o.yoo.etal.boat.b.1h2o.dset-orca.engrad-mp2.def2tzvp
|332> ! MP2 def2-TZVP EnGrad TightSCF FrozenCore
|333> 
|334> %pal
|335>     nprocs 6
|336> end
|337> 
|338> %maxcore 8000
|339> 
|340> %scf
|341>     ConvForced true
|342> end
|343> 
|344> *xyz 0 1
|345> O   0.090174750  -1.846110530  -0.580225690
|346> H  -0.702804930  -2.412943650  -0.634769220
|347> H   0.031662010  -1.434201840   0.310610750
|348> *
|349> 
|350>                          ****END OF INPUT****
================================================================================


                 $$$$$$$$$$$$$$$$$$$$$$$$$$$$$$$$$$$$$$$$$$$$$$ 
                 $ THERE ARE 16 JOBS TO BE PROCESSED THIS RUN $
                 $$$$$$$$$$$$$$$$$$$$$$$$$$$$$$$$$$$$$$$$$$$$$$ 




                 $$$$$$$$$$$$$$$$  JOB NUMBER  1 $$$$$$$$$$$$$$


                     *******************************
                     * Energy+Gradient Calculation *
                     *******************************

---------------------------------
CARTESIAN COORDINATES (ANGSTROEM)
---------------------------------
  O     -0.017510    0.573245   -1.880418
  H     -0.017511   -0.356659   -1.566506
  H     -0.902468    0.728418   -2.260528

----------------------------
CARTESIAN COORDINATES (A.U.)
----------------------------
  NO LB      ZA    FRAG     MASS         X           Y           Z
   0 O     8.0000    0    15.999   -0.033089    1.083275   -3.553474
   1 H     1.0000    0     1.008   -0.033091   -0.673988   -2.960268
   2 H     1.0000    0     1.008   -1.705418    1.376511   -4.271778

--------------------------------
INTERNAL COORDINATES (ANGSTROEM)
--------------------------------
 O      0   0   0     0.000000000000     0.00000000     0.00000000
 H      1   0   0     0.981458805601     0.00000000     0.00000000
 H      1   2   0     0.975558160683   105.98144090     0.00000000

---------------------------
INTERNAL COORDINATES (A.U.)
---------------------------
 O      0   0   0     0.000000000000     0.00000000     0.00000000
 H      1   0   0     1.854688354311     0.00000000     0.00000000
 H      1   2   0     1.843537751404   105.98144090     0.00000000

---------------------
BASIS SET INFORMATION
---------------------
There are 2 groups of distinct atoms

 Group   1 Type O   : 11s6p2d1f contracted to 5s3p2d1f pattern {62111/411/11/1}
 Group   2 Type H   : 5s1p contracted to 3s1p pattern {311/1}

Atom   0O    basis set group =>   1
Atom   1H    basis set group =>   2
Atom   2H    basis set group =>   2


           ************************************************************
           *        Program running with 6 parallel MPI-processes     *
           *              working on a common directory               *
           ************************************************************
------------------------------------------------------------------------------
                           ORCA GTO INTEGRAL CALCULATION
------------------------------------------------------------------------------

                         BASIS SET STATISTICS AND STARTUP INFO

 # of primitive gaussian shells          ...   32
 # of primitive gaussian functions       ...   62
 # of contracted shells                  ...   19
 # of contracted basis functions         ...   43
 Highest angular momentum                ...    3
 Maximum contraction depth               ...    6
 Integral package used                   ... LIBINT
 Integral threshhold            Thresh   ...  2.500e-11
 Primitive cut-off              TCut     ...  2.500e-12


------------------------------ INTEGRAL EVALUATION ----------------------------


 * One electron integrals 
 Pre-screening matrix                    ... done
 Shell pair data                         ... done (   0.000 sec)



           ************************************************************
           *        Program running with 6 parallel MPI-processes     *
           *              working on a common directory               *
           ************************************************************
-------------------------------------------------------------------------------
                                 ORCA SCF
-------------------------------------------------------------------------------

------------
SCF SETTINGS
------------
Hamiltonian:
 Ab initio Hamiltonian  Method          .... Hartree-Fock(GTOs)


General Settings:
 Integral files         IntName         .... 16h2o.yoo.etal.boat.b.1h2o.dset-orca.engrad-mp2.def2tzvp
 Hartree-Fock type      HFTyp           .... RHF
 Total Charge           Charge          ....    0
 Multiplicity           Mult            ....    1
 Number of Electrons    NEL             ....   10
 Basis Dimension        Dim             ....   43
 Nuclear Repulsion      ENuc            ....      8.9914935534 Eh

Convergence Acceleration:
 DIIS                   CNVDIIS         .... on
   Start iteration      DIISMaxIt       ....    12
   Startup error        DIISStart       ....  0.200000
   # of expansion vecs  DIISMaxEq       ....     5
   Bias factor          DIISBfac        ....   1.050
   Max. coefficient     DIISMaxC        ....  10.000
 Newton-Raphson         CNVNR           .... off
 SOSCF                  CNVSOSCF        .... on
   Start iteration      SOSCFMaxIt      ....   150
   Startup grad/error   SOSCFStart      ....  0.003300
 Level Shifting         CNVShift        .... on
   Level shift para.    LevelShift      ....    0.2500
   Turn off err/grad.   ShiftErr        ....    0.0010
 Zerner damping         CNVZerner       .... off
 Static damping         CNVDamp         .... on
   Fraction old density DampFac         ....    0.7000
   Max. Damping (<1)    DampMax         ....    0.9800
   Min. Damping (>=0)   DampMin         ....    0.0000
   Turn off err/grad.   DampErr         ....    0.1000
 Fernandez-Rico         CNVRico         .... off

SCF Procedure:
 Maximum # iterations   MaxIter         ....   125
 SCF integral mode      SCFMode         .... Direct
   Integral package                     .... LIBINT
 Reset frequency        DirectResetFreq ....    20
 Integral Threshold     Thresh          ....  2.500e-11 Eh
 Primitive CutOff       TCut            ....  2.500e-12 Eh

Convergence Tolerance:
 Convergence Check Mode ConvCheckMode   .... Total+1el-Energy
 Convergence forced     ConvForced      .... 1
 Energy Change          TolE            ....  1.000e-08 Eh
 1-El. energy change                    ....  1.000e-05 Eh
 Orbital Gradient       TolG            ....  1.000e-05
 Orbital Rotation angle TolX            ....  1.000e-05
 DIIS Error             TolErr          ....  5.000e-07


Diagonalization of the overlap matrix:
Smallest eigenvalue                        ... 9.104e-03
Time for diagonalization                   ...    0.001 sec
Threshold for overlap eigenvalues          ... 1.000e-08
Number of eigenvalues below threshold      ... 0
Time for construction of square roots      ...    0.000 sec
Total time needed                          ...    0.001 sec

-------------------
DFT GRID GENERATION
-------------------

General Integration Accuracy     IntAcc      ...  4.340
Radial Grid Type                 RadialGrid  ... Gauss-Chebyshev
Angular Grid (max. acc.)         AngularGrid ... Lebedev-110
Angular grid pruning method      GridPruning ... 3 (G Style)
Weight generation scheme         WeightScheme... Becke
Basis function cutoff            BFCut       ...    1.0000e-11
Integration weight cutoff        WCut        ...    1.0000e-14
Grids for H and He will be reduced by one unit

# of grid points (after initial pruning)     ...   3304 (   0.0 sec)
# of grid points (after weights+screening)   ...   3291 (   0.0 sec)
nearest neighbour list constructed           ...    0.0 sec
Grid point re-assignment to atoms done       ...    0.0 sec
Grid point division into batches done        ...    0.0 sec
Reduced shell lists constructed in    0.0 sec

Total number of grid points                  ...     3291
Total number of batches                      ...       53
Average number of points per batch           ...       62
Average number of grid points per atom       ...     1097
Average number of shells per batch           ...    15.40 (81.05%)
Average number of basis functions per batch  ...    36.00 (83.72%)
Average number of large shells per batch     ...    14.50 (94.16%)
Average number of large basis fcns per batch ...    33.70 (93.61%)
Maximum spatial batch extension              ...  15.94, 16.41, 19.93 au
Average spatial batch extension              ...   1.12,  1.23,  1.48 au

Time for grid setup =    0.007 sec

------------------------------
INITIAL GUESS: MODEL POTENTIAL
------------------------------
Loading Hartree-Fock densities                     ... done
Calculating cut-offs                               ... done
Setting up the integral package                    ... done
Initializing the effective Hamiltonian             ... done
Starting the Coulomb interaction                   ... done (   0.0 sec)
Reading the grid                                   ... done
Mapping shells                                     ... done
Starting the XC term evaluation                    ... done (   0.0 sec)
Transforming the Hamiltonian                       ... done (   0.0 sec)
Diagonalizing the Hamiltonian                      ... done (   0.0 sec)
Back transforming the eigenvectors                 ... done (   0.0 sec)
Now organizing SCF variables                       ... done
                      ------------------
                      INITIAL GUESS DONE (   0.2 sec)
                      ------------------
--------------
SCF ITERATIONS
--------------
ITER       Energy         Delta-E        Max-DP      RMS-DP      [F,P]     Damp
               ***  Starting incremental Fock matrix formation  ***
  0    -75.9555939358   0.000000000000 0.04246380  0.00243653  0.3419270 0.7000
  1    -75.9959948662  -0.040400930475 0.02810797  0.00166844  0.2158086 0.7000
                               ***Turning on DIIS***
  2    -76.0169560227  -0.020961156409 0.01603806  0.00090307  0.1638340 0.7000
  3    -76.1939709335  -0.177014910851 0.00699518  0.00038160  0.1218812 0.7000
  4    -76.1568431457   0.037127787763 0.01498978  0.00086762  0.0862092 0.0000
  5    -76.0653034478   0.091539697955 0.00174116  0.00013994  0.0054255 0.0000
                      *** Initiating the SOSCF procedure ***
                           *** Shutting down DIIS ***
                      *** Re-Reading the Fockian *** 
                      *** Removing any level shift *** 
ITER      Energy       Delta-E        Grad      Rot      Max-DP    RMS-DP
  6    -76.05889615   0.0064073003  0.001211  0.001211  0.001044  0.000081
               *** Restarting incremental Fock matrix formation ***
  7    -76.05688138   0.0020147630  0.000390  0.000556  0.000307  0.000035
  8    -76.05688272  -0.0000013366  0.000236  0.000422  0.000427  0.000030
  9    -76.05688304  -0.0000003162  0.000072  0.000060  0.000069  0.000005
 10    -76.05688306  -0.0000000262  0.000008  0.000008  0.000006  0.000001
 11    -76.05688306  -0.0000000005  0.000003  0.000004  0.000003  0.000000
                 **** Energy Check signals convergence ****
              ***Rediagonalizing the Fockian in SOSCF/NRSCF***

               *****************************************************
               *                     SUCCESS                       *
               *           SCF CONVERGED AFTER  12 CYCLES          *
               *****************************************************


----------------
TOTAL SCF ENERGY
----------------

Total Energy       :          -76.05688306 Eh           -2069.61301 eV

Components:
Nuclear Repulsion  :            8.99149355 Eh             244.67098 eV
Electronic Energy  :          -85.04837662 Eh           -2314.28398 eV
One Electron Energy:         -122.72257201 Eh           -3339.45096 eV
Two Electron Energy:           37.67419539 Eh            1025.16698 eV

Virial components:
Potential Energy   :         -151.97672708 Eh           -4135.49699 eV
Kinetic Energy     :           75.91984401 Eh            2065.88398 eV
Virial Ratio       :            2.00180505


---------------
SCF CONVERGENCE
---------------

  Last Energy change         ...   -6.6166e-11  Tolerance :   1.0000e-08
  Last MAX-Density change    ...    6.7171e-07  Tolerance :   1.0000e-07
  Last RMS-Density change    ...    4.6642e-08  Tolerance :   5.0000e-09
  Last Orbital Gradient      ...    4.8988e-07  Tolerance :   1.0000e-05
  Last Orbital Rotation      ...    7.3880e-07  Tolerance :   1.0000e-05

             **** THE GBW FILE WAS UPDATED (16h2o.yoo.etal.boat.b.1h2o.dset-orca.engrad-mp2.def2tzvp.gbw) ****
             **** DENSITY FILE WAS UPDATED (16h2o.yoo.etal.boat.b.1h2o.dset-orca.engrad-mp2.def2tzvp.scfp) ****
             **** ENERGY FILE WAS UPDATED (16h2o.yoo.etal.boat.b.1h2o.dset-orca.engrad-mp2.def2tzvp.en.tmp) ****
             **** THE GBW FILE WAS UPDATED (16h2o.yoo.etal.boat.b.1h2o.dset-orca.engrad-mp2.def2tzvp.gbw) ****
             **** DENSITY FILE WAS UPDATED (16h2o.yoo.etal.boat.b.1h2o.dset-orca.engrad-mp2.def2tzvp.scfp) ****
----------------
ORBITAL ENERGIES
----------------

  NO   OCC          E(Eh)            E(eV) 
   0   2.0000     -20.562846      -559.5435 
   1   2.0000      -1.337976       -36.4082 
   2   2.0000      -0.705985       -19.2108 
   3   2.0000      -0.574402       -15.6303 
   4   2.0000      -0.505881       -13.7657 
   5   0.0000       0.125650         3.4191 
   6   0.0000       0.195169         5.3108 
   7   0.0000       0.520715        14.1694 
   8   0.0000       0.562087        15.2952 
   9   0.0000       0.597950        16.2710 
  10   0.0000       0.630796        17.1648 
  11   0.0000       0.766900        20.8684 
  12   0.0000       0.767810        20.8932 
  13   0.0000       1.420758        38.6608 
  14   0.0000       1.432902        38.9912 
  15   0.0000       1.552532        42.2465 
  16   0.0000       1.787470        48.6395 
  17   0.0000       1.897575        51.6356 
  18   0.0000       2.004483        54.5448 
  19   0.0000       2.292127        62.3720 
  20   0.0000       2.328491        63.3615 
  21   0.0000       2.386028        64.9271 
  22   0.0000       2.574004        70.0422 
  23   0.0000       2.694869        73.3311 
  24   0.0000       2.932172        79.7885 
  25   0.0000       2.946878        80.1886 
  26   0.0000       3.022021        82.2334 
  27   0.0000       3.137530        85.3765 
  28   0.0000       3.983101       108.3857 
  29   0.0000       4.306431       117.1839 
  30   0.0000       5.551353       151.0600 
  31   0.0000       5.641932       153.5248 
  32   0.0000       5.820839       158.3931 
  33   0.0000       5.842034       158.9698 
  34   0.0000       5.914359       160.9379 
  35   0.0000       6.446783       175.4259 
  36   0.0000       6.684601       181.8972 
  37   0.0000       6.823180       185.6682 
  38   0.0000       6.889236       187.4656 
  39   0.0000       6.925969       188.4652 
  40   0.0000       7.372936       200.6278 
  41   0.0000       7.482212       203.6013 
  42   0.0000      44.816236      1219.5118 

                    ********************************
                    * MULLIKEN POPULATION ANALYSIS *
                    ********************************

-----------------------
MULLIKEN ATOMIC CHARGES
-----------------------
   0 O :   -0.697857
   1 H :    0.349242
   2 H :    0.348616
Sum of atomic charges:    0.0000000

--------------------------------
MULLIKEN REDUCED ORBITAL CHARGES
--------------------------------
  0 O s       :     3.813823  s :     3.813823
      pz      :     1.831143  p :     4.856711
      px      :     1.542299
      py      :     1.483268
      dz2     :     0.002954  d :     0.025774
      dxz     :     0.004500
      dyz     :     0.002653
      dx2y2   :     0.014513
      dxy     :     0.001154
      f0      :     0.000387  f :     0.001550
      f+1     :     0.000098
      f-1     :     0.000151
      f+2     :     0.000485
      f-2     :     0.000092
      f+3     :     0.000097
      f-3     :     0.000241
  1 H s       :     0.606997  s :     0.606997
      pz      :     0.014719  p :     0.043761
      px      :     0.010258
      py      :     0.018784
  2 H s       :     0.607004  s :     0.607004
      pz      :     0.015445  p :     0.044381
      px      :     0.018344
      py      :     0.010591


                     *******************************
                     * LOEWDIN POPULATION ANALYSIS *
                     *******************************

----------------------
LOEWDIN ATOMIC CHARGES
----------------------
   0 O :   -0.338032
   1 H :    0.171057
   2 H :    0.166975

-------------------------------
LOEWDIN REDUCED ORBITAL CHARGES
-------------------------------
  0 O s       :     3.477118  s :     3.477118
      pz      :     1.788613  p :     4.825705
      px      :     1.548415
      py      :     1.488677
      dz2     :     0.003095  d :     0.033060
      dxz     :     0.005693
      dyz     :     0.003573
      dx2y2   :     0.019999
      dxy     :     0.000701
      f0      :     0.000503  f :     0.002149
      f+1     :     0.000026
      f-1     :     0.000103
      f+2     :     0.000640
      f-2     :     0.000063
      f+3     :     0.000311
      f-3     :     0.000504
  1 H s       :     0.675483  s :     0.675483
      pz      :     0.044519  p :     0.153460
      px      :     0.029316
      py      :     0.079625
  2 H s       :     0.676821  s :     0.676821
      pz      :     0.048428  p :     0.156205
      px      :     0.078165
      py      :     0.029612


                      *****************************
                      * MAYER POPULATION ANALYSIS *
                      *****************************

  NA   - Mulliken gross atomic population
  ZA   - Total nuclear charge
  QA   - Mulliken gross atomic charge
  VA   - Mayer's total valence
  BVA  - Mayer's bonded valence
  FA   - Mayer's free valence

  ATOM       NA         ZA         QA         VA         BVA        FA
  0 O      8.6979     8.0000    -0.6979     1.7731     1.7731     0.0000
  1 H      0.6508     1.0000     0.3492     0.8913     0.8913     0.0000
  2 H      0.6514     1.0000     0.3486     0.8922     0.8922     0.0000

  Mayer bond orders larger than 0.100000
B(  0-O ,  1-H ) :   0.8861 B(  0-O ,  2-H ) :   0.8869 

-------
TIMINGS
-------

Total SCF time: 0 days 0 hours 0 min 4 sec 

Total time                  ....       4.169 sec
Sum of individual times     ....       3.374 sec  ( 80.9%)

Fock matrix formation       ....       2.545 sec  ( 61.1%)
Diagonalization             ....       0.168 sec  (  4.0%)
Density matrix formation    ....       0.166 sec  (  4.0%)
Population analysis         ....       0.169 sec  (  4.1%)
Initial guess               ....       0.214 sec  (  5.1%)
Orbital Transformation      ....       0.000 sec  (  0.0%)
Orbital Orthonormalization  ....       0.000 sec  (  0.0%)
DIIS solution               ....       0.086 sec  (  2.1%)
SOSCF solution              ....       0.019 sec  (  0.4%)


           ************************************************************
           *        Program running with 6 parallel MPI-processes     *
           *              working on a common directory               *
           ************************************************************

------------------------------------------------------------------------------
                                ORCA  MP2 
------------------------------------------------------------------------------

Freezing NCore=2 chemical core electrons
MP2 will be done in the AO integral direct mode
The Q1-step will be done using symmetric double matrices
Dimension of the basis                    ...   43
Memory devoted for MP2                    ... 8000 MB   
Memory needed for all in one shot         ...    1 MB
Number of MOs that can be treated together... 25776      
MP2 density construction                  ... relaxed
The MP2 gradient is requested => amplitudes will be stored on disk
Total number of MOs              ...    4
Number of MOs treated per batch  ...    1 
Number of batches necessary      ...    1 
OPERATORS   0/  0 PASS   0
-----------------------------------------------
 MP2 CORRELATION ENERGY   :     -0.255581750 Eh
-----------------------------------------------


---------------------
MP2 DENSITY FORMATION
---------------------

Completing the external part of the density      ... done
Storing the unrelaxed density                    ... done

Calculating G(D)                                 ... done
Completing the Lagrangian                        ... done
Solving the Z-vector equations                   ... 

------------------------------------------------------------------------------
                           ORCA CP-SCF CALCULATION
------------------------------------------------------------------------------

Input orbitals are from        ... 16h2o.yoo.etal.boat.b.1h2o.dset-orca.engrad-mp2.def2tzvp.gbw
Input Perturbation             ... 16h2o.yoo.etal.boat.b.1h2o.dset-orca.engrad-mp2.def2tzvp.pin.tmp
Wavefunction output            ... 16h2o.yoo.etal.boat.b.1h2o.dset-orca.engrad-mp2.def2tzvp.pout.tmp
Perturbation mode              ... Real perturbation (singlet)
Solver                         ... POPLE
Max. number of iterations      ... 128
Convergence tolerance          ... 1.000e-08
Integral handling              ... Direct
Number of perturbations        ... 1
Number of operators            ... 1
Orbital ranges used for CP-SCF:
 Operator 0:  Orbitals   0...  4  to   5... 42
Variables per vector in CP-SCF ... 190
Number of vectors sought       ... 1
     CP-SCF ITERATION   0: 
     CP-SCF ITERATION   1:      0.000107780454
     CP-SCF ITERATION   2:      0.000001949115
     CP-SCF ITERATION   3:      0.000000050623
     CP-SCF ITERATION   4:      0.000000000660
                                                 ... done
Finalizing the relaxed density                   ... done
Transforming P to the AO basis                   ... done
Storing the relaxed density                      ... done

------------------------------------
ENERGY WEIGHTED DENSITY FINALIZATION
------------------------------------

Gathering the parts of the W-matrix              ...                                                      done
Forming the Z-density                            ... done
Transforming Z to the AO basis                   ... done
Calculating G(Z)                                 ... done
Finalizing the W-matrix                          ...                                                      done
Transforming W to the AO basis and storing       ... done

                *********************************************
                * UNRELAXED MP2 DENSITY POPULATION ANALYSIS *
                *********************************************

------------------------------------------------------------------------------
                           ORCA POPULATION ANALYSIS
------------------------------------------------------------------------------
Input electron density              ... 16h2o.yoo.etal.boat.b.1h2o.dset-orca.engrad-mp2.def2tzvp.pmp2ur
BaseName (.gbw .S,...)              ... 16h2o.yoo.etal.boat.b.1h2o.dset-orca.engrad-mp2.def2tzvp

                    ********************************
                    * MULLIKEN POPULATION ANALYSIS *
                    ********************************

-----------------------
MULLIKEN ATOMIC CHARGES
-----------------------
   0 O :   -0.693138
   1 H :    0.346844
   2 H :    0.346293
Sum of atomic charges:    0.0000000

--------------------------------
MULLIKEN REDUCED ORBITAL CHARGES
--------------------------------
  0 O s       :     3.809003  s :     3.809003
      pz      :     1.820231  p :     4.827981
      px      :     1.533112
      py      :     1.474639
      dz2     :     0.008392  d :     0.052066
      dxz     :     0.009823
      dyz     :     0.008043
      dx2y2   :     0.019336
      dxy     :     0.006472
      f0      :     0.000736  f :     0.004087
      f+1     :     0.000459
      f-1     :     0.000508
      f+2     :     0.000847
      f-2     :     0.000450
      f+3     :     0.000475
      f-3     :     0.000612
  1 H s       :     0.607769  s :     0.607769
      pz      :     0.015479  p :     0.045387
      px      :     0.011066
      py      :     0.018842
  2 H s       :     0.607697  s :     0.607697
      pz      :     0.016165  p :     0.046010
      px      :     0.018516
      py      :     0.011329


                     *******************************
                     * LOEWDIN POPULATION ANALYSIS *
                     *******************************

----------------------
LOEWDIN ATOMIC CHARGES
----------------------
   0 O :   -0.335316
   1 H :    0.169655
   2 H :    0.165661

-------------------------------
LOEWDIN REDUCED ORBITAL CHARGES
-------------------------------
  0 O s       :     3.473348  s :     3.473348
      pz      :     1.778027  p :     4.796697
      px      :     1.538966
      py      :     1.479704
      dz2     :     0.008659  d :     0.060395
      dxz     :     0.011249
      dyz     :     0.009074
      dx2y2   :     0.025639
      dxy     :     0.005774
      f0      :     0.000887  f :     0.004877
      f+1     :     0.000394
      f-1     :     0.000473
      f+2     :     0.001064
      f-2     :     0.000429
      f+3     :     0.000713
      f-3     :     0.000917
  1 H s       :     0.673710  s :     0.673710
      pz      :     0.045337  p :     0.156635
      px      :     0.030085
      py      :     0.081212
  2 H s       :     0.674975  s :     0.674975
      pz      :     0.049283  p :     0.159364
      px      :     0.079750
      py      :     0.030330


                      *****************************
                      * MAYER POPULATION ANALYSIS *
                      *****************************

  NA   - Mulliken gross atomic population
  ZA   - Total nuclear charge
  QA   - Mulliken gross atomic charge
  VA   - Mayer's total valence
  BVA  - Mayer's bonded valence
  FA   - Mayer's free valence

  ATOM       NA         ZA         QA         VA         BVA        FA
  0 O      8.6931     8.0000    -0.6931     2.0767     1.6908     0.3859
  1 H      0.6532     1.0000     0.3468     0.8972     0.8496     0.0476
  2 H      0.6537     1.0000     0.3463     0.8980     0.8508     0.0472

  Mayer bond orders larger than 0.100000
B(  0-O ,  1-H ) :   0.8448 B(  0-O ,  2-H ) :   0.8460 


                *******************************************
                * RELAXED MP2 DENSITY POPULATION ANALYSIS *
                *******************************************

------------------------------------------------------------------------------
                           ORCA POPULATION ANALYSIS
------------------------------------------------------------------------------
Input electron density              ... 16h2o.yoo.etal.boat.b.1h2o.dset-orca.engrad-mp2.def2tzvp.pmp2re
BaseName (.gbw .S,...)              ... 16h2o.yoo.etal.boat.b.1h2o.dset-orca.engrad-mp2.def2tzvp

                    ********************************
                    * MULLIKEN POPULATION ANALYSIS *
                    ********************************

-----------------------
MULLIKEN ATOMIC CHARGES
-----------------------
   0 O :   -0.680699
   1 H :    0.340658
   2 H :    0.340042
Sum of atomic charges:    0.0000000

--------------------------------
MULLIKEN REDUCED ORBITAL CHARGES
--------------------------------
  0 O s       :     3.813797  s :     3.813797
      pz      :     1.817709  p :     4.813129
      px      :     1.526480
      py      :     1.468939
      dz2     :     0.008237  d :     0.049759
      dxz     :     0.009461
      dyz     :     0.007834
      dx2y2   :     0.017661
      dxy     :     0.006566
      f0      :     0.000724  f :     0.004015
      f+1     :     0.000459
      f-1     :     0.000506
      f+2     :     0.000822
      f-2     :     0.000450
      f+3     :     0.000463
      f-3     :     0.000592
  1 H s       :     0.613266  s :     0.613266
      pz      :     0.016265  p :     0.046076
      px      :     0.011804
      py      :     0.018007
  2 H s       :     0.613246  s :     0.613246
      pz      :     0.016870  p :     0.046712
      px      :     0.017907
      py      :     0.011935


                     *******************************
                     * LOEWDIN POPULATION ANALYSIS *
                     *******************************

----------------------
LOEWDIN ATOMIC CHARGES
----------------------
   0 O :   -0.338696
   1 H :    0.171364
   2 H :    0.167332

-------------------------------
LOEWDIN REDUCED ORBITAL CHARGES
-------------------------------
  0 O s       :     3.475557  s :     3.475557
      pz      :     1.777368  p :     4.799230
      px      :     1.539950
      py      :     1.481912
      dz2     :     0.008630  d :     0.059012
      dxz     :     0.011028
      dyz     :     0.008919
      dx2y2   :     0.024654
      dxy     :     0.005781
      f0      :     0.000892  f :     0.004897
      f+1     :     0.000395
      f-1     :     0.000474
      f+2     :     0.001076
      f-2     :     0.000432
      f+3     :     0.000708
      f-3     :     0.000920
  1 H s       :     0.671861  s :     0.671861
      pz      :     0.045995  p :     0.156776
      px      :     0.030514
      py      :     0.080267
  2 H s       :     0.673191  s :     0.673191
      pz      :     0.049866  p :     0.159477
      px      :     0.079122
      py      :     0.030490


                      *****************************
                      * MAYER POPULATION ANALYSIS *
                      *****************************

  NA   - Mulliken gross atomic population
  ZA   - Total nuclear charge
  QA   - Mulliken gross atomic charge
  VA   - Mayer's total valence
  BVA  - Mayer's bonded valence
  FA   - Mayer's free valence

  ATOM       NA         ZA         QA         VA         BVA        FA
  0 O      8.6807     8.0000    -0.6807     2.0808     1.6996     0.3812
  1 H      0.6593     1.0000     0.3407     0.9018     0.8541     0.0477
  2 H      0.6600     1.0000     0.3400     0.9026     0.8553     0.0473

  Mayer bond orders larger than 0.100000
B(  0-O ,  1-H ) :   0.8492 B(  0-O ,  2-H ) :   0.8504 


----------------------------------
MP2 DERIVATIVE INTEGRAL GENERATION
----------------------------------


Input Wavefunction Amplitudes       ... 16h2o.yoo.etal.boat.b.1h2o.dset-orca.engrad-mp2.def2tzvp.mp2tsaa.tmp
Input Correlated Electron Density   ... 16h2o.yoo.etal.boat.b.1h2o.dset-orca.engrad-mp2.def2tzvp.pmp2re
Input Energy Weighted Density       ... 16h2o.yoo.etal.boat.b.1h2o.dset-orca.engrad-mp2.def2tzvp.wmp2.tmp
Input SCF Electron Density          ... 16h2o.yoo.etal.boat.b.1h2o.dset-orca.engrad-mp2.def2tzvp.scfp

One-Electron Terms    ...
                        ... One-Electron Terms done
Prescreening matrices              ... done

Batch handling in the gradient evaluation:
Memory available                      ... 8000.0 MB
Memory per occupied orbital in Q2     ...    0.1 MB
Memory per occupied orbital in Q3     ...    0.0 MB
Total memory requirement per |i>      ...    0.1 MB
Max. Number of orbitals possible      ... 110341
Number of orbitals treated per batch  ...      4
Number of batches to be done          ...      1
Batch   0: i=    1 ...     4

---------------------------------------
MP2 TOTAL ENERGY:      -76.312464814 Eh
---------------------------------------

The final MP2 gradient
  0:   0.00856638   0.01266031  -0.00110142
  1:   0.00283670  -0.01764055   0.00700552
  2:  -0.01140307   0.00498024  -0.00590411

-----------------------------------
NORM OF THE MP2 GRADIENT:  0.028158
-----------------------------------

-------------------------   --------------------
FINAL SINGLE POINT ENERGY       -76.312464814381
-------------------------   --------------------


                            ***************************************
                            *     ORCA property calculations      *
                            ***************************************

                                    ---------------------
                                    Active property flags
                                    ---------------------
   (+) Dipole Moment


------------------------------------------------------------------------------
                       ORCA ELECTRIC PROPERTIES CALCULATION
------------------------------------------------------------------------------

Dipole Moment Calculation                       ... on
Quadrupole Moment Calculation                   ... off
Polarizability Calculation                      ... off
GBWName                                         ... 16h2o.yoo.etal.boat.b.1h2o.dset-orca.engrad-mp2.def2tzvp.gbw
Electron density file                           ... 16h2o.yoo.etal.boat.b.1h2o.dset-orca.engrad-mp2.def2tzvp.scfp
The origin for moment calculation is the CENTER OF MASS  = (-0.126662,  1.001358 -3.560474)

-------------
DIPOLE MOMENT
-------------
                                X             Y             Z
Electronic contribution:      0.10007       0.08942       0.00687
Nuclear contribution   :     -0.73661      -0.64485      -0.05510
                        -----------------------------------------
Total Dipole Moment    :     -0.63653      -0.55543      -0.04823
                        -----------------------------------------
Magnitude (a.u.)       :      0.84617
Magnitude (Debye)      :      2.15079



--------------------
Rotational spectrum 
--------------------
 
Rotational constants in cm-1:    27.141476    13.695135     9.102278 
Rotational constants in MHz : 813680.969867 410569.825244 272879.425471 

 Dipole components along the rotational axes: 
x,y,z [a.u.] :    -0.009187    -0.846120     0.000000 
x,y,z [Debye]:    -0.023352    -2.150667     0.000000 

 

                         *** MP2 UNRELAXED DENSITY ***

------------------------------------------------------------------------------
                       ORCA ELECTRIC PROPERTIES CALCULATION
------------------------------------------------------------------------------

Dipole Moment Calculation                       ... on
Quadrupole Moment Calculation                   ... off
Polarizability Calculation                      ... off
GBWName                                         ... 16h2o.yoo.etal.boat.b.1h2o.dset-orca.engrad-mp2.def2tzvp.gbw
Electron density file                           ... 16h2o.yoo.etal.boat.b.1h2o.dset-orca.engrad-mp2.def2tzvp.pmp2ur
The origin for moment calculation is the CENTER OF MASS  = (-0.126662,  1.001358 -3.560474)

-------------
DIPOLE MOMENT
-------------
                                X             Y             Z
Electronic contribution:      0.10731       0.09588       0.00737
Nuclear contribution   :     -0.73661      -0.64485      -0.05510
                        -----------------------------------------
Total Dipole Moment    :     -0.62930      -0.54897      -0.04773
                        -----------------------------------------
Magnitude (a.u.)       :      0.83646
Magnitude (Debye)      :      2.12611



--------------------
Rotational spectrum 
--------------------
 
Rotational constants in cm-1:    27.141476    13.695135     9.102278 
Rotational constants in MHz : 813680.969867 410569.825244 272879.425471 

 Dipole components along the rotational axes: 
x,y,z [a.u.] :    -0.008963    -0.836411     0.000000 
x,y,z [Debye]:    -0.022783    -2.125987     0.000000 

 

                           *** MP2 RELAXED DENSITY ***

------------------------------------------------------------------------------
                       ORCA ELECTRIC PROPERTIES CALCULATION
------------------------------------------------------------------------------

Dipole Moment Calculation                       ... on
Quadrupole Moment Calculation                   ... off
Polarizability Calculation                      ... off
GBWName                                         ... 16h2o.yoo.etal.boat.b.1h2o.dset-orca.engrad-mp2.def2tzvp.gbw
Electron density file                           ... 16h2o.yoo.etal.boat.b.1h2o.dset-orca.engrad-mp2.def2tzvp.pmp2re
The origin for moment calculation is the CENTER OF MASS  = (-0.126662,  1.001358 -3.560474)

-------------
DIPOLE MOMENT
-------------
                                X             Y             Z
Electronic contribution:      0.11512       0.10256       0.00801
Nuclear contribution   :     -0.73661      -0.64485      -0.05510
                        -----------------------------------------
Total Dipole Moment    :     -0.62149      -0.54230      -0.04709
                        -----------------------------------------
Magnitude (a.u.)       :      0.82617
Magnitude (Debye)      :      2.09995



--------------------
Rotational spectrum 
--------------------
 
Rotational constants in cm-1:    27.141476    13.695135     9.102278 
Rotational constants in MHz : 813680.969867 410569.825244 272879.425471 

 Dipole components along the rotational axes: 
x,y,z [a.u.] :    -0.008967    -0.826120     0.000000 
x,y,z [Debye]:    -0.022791    -2.099829     0.000000 

 

Timings for individual modules:

Sum of individual times         ...       11.552 sec (=   0.193 min)
GTO integral calculation        ...        1.556 sec (=   0.026 min)  13.5 %
SCF iterations                  ...        5.119 sec (=   0.085 min)  44.3 %
MP2 module                      ...        4.877 sec (=   0.081 min)  42.2 %


                 $$$$$$$$$$$$$$$$  JOB NUMBER  2 $$$$$$$$$$$$$$


                     *******************************
                     * Energy+Gradient Calculation *
                     *******************************

---------------------------------
CARTESIAN COORDINATES (ANGSTROEM)
---------------------------------
  O      2.710978   -1.007650    2.453584
  H      3.095340   -1.237776    3.304403
  H      3.217836   -0.217371    2.127506

----------------------------
CARTESIAN COORDINATES (A.U.)
----------------------------
  NO LB      ZA    FRAG     MASS         X           Y           Z
   0 O     8.0000    0    15.999    5.123006   -1.904182    4.636602
   1 H     1.0000    0     1.008    5.849345   -2.339057    6.244416
   2 H     1.0000    0     1.008    6.080829   -0.410772    4.020404

--------------------------------
INTERNAL COORDINATES (ANGSTROEM)
--------------------------------
 O      0   0   0     0.000000000000     0.00000000     0.00000000
 H      1   0   0     0.961553134641     0.00000000     0.00000000
 H      1   2   0     0.993867474722   106.06643326     0.00000000

---------------------------
INTERNAL COORDINATES (A.U.)
---------------------------
 O      0   0   0     0.000000000000     0.00000000     0.00000000
 H      1   0   0     1.817072087685     0.00000000     0.00000000
 H      1   2   0     1.878137340637   106.06643326     0.00000000

---------------------
BASIS SET INFORMATION
---------------------
There are 2 groups of distinct atoms

 Group   1 Type O   : 11s6p2d1f contracted to 5s3p2d1f pattern {62111/411/11/1}
 Group   2 Type H   : 5s1p contracted to 3s1p pattern {311/1}

Atom   0O    basis set group =>   1
Atom   1H    basis set group =>   2
Atom   2H    basis set group =>   2


           ************************************************************
           *        Program running with 6 parallel MPI-processes     *
           *              working on a common directory               *
           ************************************************************
------------------------------------------------------------------------------
                           ORCA GTO INTEGRAL CALCULATION
------------------------------------------------------------------------------

                         BASIS SET STATISTICS AND STARTUP INFO

 # of primitive gaussian shells          ...   32
 # of primitive gaussian functions       ...   62
 # of contracted shells                  ...   19
 # of contracted basis functions         ...   43
 Highest angular momentum                ...    3
 Maximum contraction depth               ...    6
 Integral package used                   ... LIBINT
 Integral threshhold            Thresh   ...  2.500e-11
 Primitive cut-off              TCut     ...  2.500e-12


------------------------------ INTEGRAL EVALUATION ----------------------------


 * One electron integrals 
 Pre-screening matrix                    ... done
 Shell pair data                         ... done (   0.000 sec)



           ************************************************************
           *        Program running with 6 parallel MPI-processes     *
           *              working on a common directory               *
           ************************************************************
-------------------------------------------------------------------------------
                                 ORCA SCF
-------------------------------------------------------------------------------

------------
SCF SETTINGS
------------
Hamiltonian:
 Ab initio Hamiltonian  Method          .... Hartree-Fock(GTOs)


General Settings:
 Integral files         IntName         .... 16h2o.yoo.etal.boat.b.1h2o.dset-orca.engrad-mp2.def2tzvp_job2
 Hartree-Fock type      HFTyp           .... RHF
 Total Charge           Charge          ....    0
 Multiplicity           Mult            ....    1
 Number of Electrons    NEL             ....   10
 Basis Dimension        Dim             ....   43
 Nuclear Repulsion      ENuc            ....      9.0009062530 Eh

Convergence Acceleration:
 DIIS                   CNVDIIS         .... on
   Start iteration      DIISMaxIt       ....    12
   Startup error        DIISStart       ....  0.200000
   # of expansion vecs  DIISMaxEq       ....     5
   Bias factor          DIISBfac        ....   1.050
   Max. coefficient     DIISMaxC        ....  10.000
 Newton-Raphson         CNVNR           .... off
 SOSCF                  CNVSOSCF        .... on
   Start iteration      SOSCFMaxIt      ....   150
   Startup grad/error   SOSCFStart      ....  0.003300
 Level Shifting         CNVShift        .... on
   Level shift para.    LevelShift      ....    0.2500
   Turn off err/grad.   ShiftErr        ....    0.0010
 Zerner damping         CNVZerner       .... off
 Static damping         CNVDamp         .... on
   Fraction old density DampFac         ....    0.7000
   Max. Damping (<1)    DampMax         ....    0.9800
   Min. Damping (>=0)   DampMin         ....    0.0000
   Turn off err/grad.   DampErr         ....    0.1000
 Fernandez-Rico         CNVRico         .... off

SCF Procedure:
 Maximum # iterations   MaxIter         ....   125
 SCF integral mode      SCFMode         .... Direct
   Integral package                     .... LIBINT
 Reset frequency        DirectResetFreq ....    20
 Integral Threshold     Thresh          ....  2.500e-11 Eh
 Primitive CutOff       TCut            ....  2.500e-12 Eh

Convergence Tolerance:
 Convergence Check Mode ConvCheckMode   .... Total+1el-Energy
 Convergence forced     ConvForced      .... 1
 Energy Change          TolE            ....  1.000e-08 Eh
 1-El. energy change                    ....  1.000e-05 Eh
 Orbital Gradient       TolG            ....  1.000e-05
 Orbital Rotation angle TolX            ....  1.000e-05
 DIIS Error             TolErr          ....  5.000e-07


Diagonalization of the overlap matrix:
Smallest eigenvalue                        ... 8.992e-03
Time for diagonalization                   ...    0.001 sec
Threshold for overlap eigenvalues          ... 1.000e-08
Number of eigenvalues below threshold      ... 0
Time for construction of square roots      ...    0.000 sec
Total time needed                          ...    0.001 sec

---------------------
INITIAL GUESS: MOREAD
---------------------
Guess MOs are being read from file: 16h2o.yoo.etal.boat.b.1h2o.dset-orca.engrad-mp2.def2tzvp.gbw
Input geometry compatible with but different from current geometry
Input basis set matches current basis set (good)
MOs were renormalized
MOs were reorthogonalized (Cholesky)
                      ------------------
                      INITIAL GUESS DONE (   0.0 sec)
                      ------------------
--------------
SCF ITERATIONS
--------------
ITER       Energy         Delta-E        Max-DP      RMS-DP      [F,P]     Damp
               ***  Starting incremental Fock matrix formation  ***
  0    -75.3508483205   0.000000000000 0.06433776  0.00520571  0.4720804 0.7000
  1    -75.5127061470  -0.161857826489 0.05335052  0.00477817  0.4112729 0.7000
  2    -75.6413979303  -0.128691783348 0.04832195  0.00389415  0.3424538 0.7000
  3    -75.7421561939  -0.100758263554 0.04155775  0.00311973  0.2793940 0.7000
  4    -75.8203887837  -0.078232589875 0.03482105  0.00249924  0.2259095 0.7000
                               ***Turning on DIIS***
  5    -75.8803843755  -0.059995591755 0.02883071  0.00200899  0.1819931 0.7000
  6    -75.9672162977  -0.086831922245 0.02774073  0.00187365  0.1464397 0.7000
  7    -75.9988282749  -0.031611977174 0.02526074  0.00170266  0.1134919 0.7000
  8    -76.0133151444  -0.014486869444 0.06860183  0.00468920  0.0844890 0.0000
  9    -76.0581962562  -0.044881111814 0.00676641  0.00058913  0.0105835 0.0000
 10    -76.0578579531   0.000338303089 0.00479542  0.00032321  0.0048262 0.0000
                      *** Initiating the SOSCF procedure ***
                           *** Shutting down DIIS ***
                      *** Re-Reading the Fockian *** 
                      *** Removing any level shift *** 
ITER      Energy       Delta-E        Grad      Rot      Max-DP    RMS-DP
 11    -76.05674966   0.0011082889  0.001894  0.001894  0.002347  0.000133
               *** Restarting incremental Fock matrix formation ***
 12    -76.05654534   0.0002043202  0.000412  0.000588  0.001092  0.000055
 13    -76.05654688  -0.0000015361  0.000162  0.000423  0.000704  0.000035
 14    -76.05654726  -0.0000003764  0.000031  0.000027  0.000053  0.000004
 15    -76.05654727  -0.0000000112  0.000022  0.000017  0.000030  0.000002
                 **** Energy Check signals convergence ****
              ***Rediagonalizing the Fockian in SOSCF/NRSCF***

               *****************************************************
               *                     SUCCESS                       *
               *           SCF CONVERGED AFTER  16 CYCLES          *
               *****************************************************


----------------
TOTAL SCF ENERGY
----------------

Total Energy       :          -76.05654727 Eh           -2069.60387 eV

Components:
Nuclear Repulsion  :            9.00090625 Eh             244.92711 eV
Electronic Energy  :          -85.05745352 Eh           -2314.53098 eV
One Electron Energy:         -122.73879875 Eh           -3339.89251 eV
Two Electron Energy:           37.68134523 Eh            1025.36153 eV

Virial components:
Potential Energy   :         -151.98088884 Eh           -4135.61024 eV
Kinetic Energy     :           75.92434157 Eh            2066.00637 eV
Virial Ratio       :            2.00174128


---------------
SCF CONVERGENCE
---------------

  Last Energy change         ...   -2.6946e-09  Tolerance :   1.0000e-08
  Last MAX-Density change    ...    5.1027e-06  Tolerance :   1.0000e-07
  Last RMS-Density change    ...    2.9352e-07  Tolerance :   5.0000e-09
  Last Orbital Gradient      ...    2.4498e-06  Tolerance :   1.0000e-05
  Last Orbital Rotation      ...    4.9064e-06  Tolerance :   1.0000e-05

             **** THE GBW FILE WAS UPDATED (16h2o.yoo.etal.boat.b.1h2o.dset-orca.engrad-mp2.def2tzvp_job2.gbw) ****
             **** DENSITY FILE WAS UPDATED (16h2o.yoo.etal.boat.b.1h2o.dset-orca.engrad-mp2.def2tzvp_job2.scfp) ****
             **** ENERGY FILE WAS UPDATED (16h2o.yoo.etal.boat.b.1h2o.dset-orca.engrad-mp2.def2tzvp_job2.en.tmp) ****
             **** THE GBW FILE WAS UPDATED (16h2o.yoo.etal.boat.b.1h2o.dset-orca.engrad-mp2.def2tzvp_job2.gbw) ****
             **** DENSITY FILE WAS UPDATED (16h2o.yoo.etal.boat.b.1h2o.dset-orca.engrad-mp2.def2tzvp_job2.scfp) ****
----------------
ORBITAL ENERGIES
----------------

  NO   OCC          E(Eh)            E(eV) 
   0   2.0000     -20.562605      -559.5369 
   1   2.0000      -1.338546       -36.4237 
   2   2.0000      -0.706656       -19.2291 
   3   2.0000      -0.574304       -15.6276 
   4   2.0000      -0.505938       -13.7673 
   5   0.0000       0.125649         3.4191 
   6   0.0000       0.195216         5.3121 
   7   0.0000       0.520448        14.1621 
   8   0.0000       0.562187        15.2979 
   9   0.0000       0.597935        16.2706 
  10   0.0000       0.631194        17.1757 
  11   0.0000       0.765202        20.8222 
  12   0.0000       0.770149        20.9568 
  13   0.0000       1.421607        38.6839 
  14   0.0000       1.432866        38.9903 
  15   0.0000       1.553204        42.2648 
  16   0.0000       1.785634        48.5896 
  17   0.0000       1.896505        51.6065 
  18   0.0000       2.004447        54.5438 
  19   0.0000       2.291471        62.3541 
  20   0.0000       2.325629        63.2836 
  21   0.0000       2.390110        65.0382 
  22   0.0000       2.574618        70.0589 
  23   0.0000       2.696544        73.3767 
  24   0.0000       2.908644        79.1482 
  25   0.0000       2.975217        80.9598 
  26   0.0000       3.022147        82.2368 
  27   0.0000       3.138837        85.4121 
  28   0.0000       3.982036       108.3567 
  29   0.0000       4.309513       117.2678 
  30   0.0000       5.551298       151.0585 
  31   0.0000       5.641439       153.5114 
  32   0.0000       5.814576       158.2226 
  33   0.0000       5.850060       159.1882 
  34   0.0000       5.916936       161.0080 
  35   0.0000       6.436788       175.1539 
  36   0.0000       6.700349       182.3258 
  37   0.0000       6.822906       185.6607 
  38   0.0000       6.889577       187.4749 
  39   0.0000       6.925635       188.4561 
  40   0.0000       7.375021       200.6845 
  41   0.0000       7.484550       203.6649 
  42   0.0000      44.815228      1219.4844 

                    ********************************
                    * MULLIKEN POPULATION ANALYSIS *
                    ********************************

-----------------------
MULLIKEN ATOMIC CHARGES
-----------------------
   0 O :   -0.697268
   1 H :    0.346859
   2 H :    0.350409
Sum of atomic charges:   -0.0000000

--------------------------------
MULLIKEN REDUCED ORBITAL CHARGES
--------------------------------
  0 O s       :     3.813145  s :     3.813145
      pz      :     1.496835  p :     4.856857
      px      :     1.758663
      py      :     1.601359
      dz2     :     0.007103  d :     0.025711
      dxz     :     0.007316
      dyz     :     0.000960
      dx2y2   :     0.002349
      dxy     :     0.007983
      f0      :     0.000209  f :     0.001555
      f+1     :     0.000392
      f-1     :     0.000236
      f+2     :     0.000119
      f-2     :     0.000242
      f+3     :     0.000321
      f-3     :     0.000038
  1 H s       :     0.607227  s :     0.607227
      pz      :     0.018929  p :     0.045914
      px      :     0.014167
      py      :     0.012818
  2 H s       :     0.607084  s :     0.607084
      pz      :     0.011400  p :     0.042507
      px      :     0.013877
      py      :     0.017230


                     *******************************
                     * LOEWDIN POPULATION ANALYSIS *
                     *******************************

----------------------
LOEWDIN ATOMIC CHARGES
----------------------
   0 O :   -0.336610
   1 H :    0.157092
   2 H :    0.179518

-------------------------------
LOEWDIN REDUCED ORBITAL CHARGES
-------------------------------
  0 O s       :     3.475719  s :     3.475719
      pz      :     1.496776  p :     4.825669
      px      :     1.743013
      py      :     1.585880
      dz2     :     0.009964  d :     0.033061
      dxz     :     0.009093
      dyz     :     0.002371
      dx2y2   :     0.002082
      dxy     :     0.009551
      f0      :     0.000291  f :     0.002161
      f+1     :     0.000698
      f-1     :     0.000258
      f+2     :     0.000086
      f-2     :     0.000324
      f+3     :     0.000483
      f-3     :     0.000020
  1 H s       :     0.680075  s :     0.680075
      pz      :     0.076405  p :     0.162833
      px      :     0.048974
      py      :     0.037453
  2 H s       :     0.672709  s :     0.672709
      pz      :     0.032362  p :     0.147773
      px      :     0.049455
      py      :     0.065956


                      *****************************
                      * MAYER POPULATION ANALYSIS *
                      *****************************

  NA   - Mulliken gross atomic population
  ZA   - Total nuclear charge
  QA   - Mulliken gross atomic charge
  VA   - Mayer's total valence
  BVA  - Mayer's bonded valence
  FA   - Mayer's free valence

  ATOM       NA         ZA         QA         VA         BVA        FA
  0 O      8.6973     8.0000    -0.6973     1.7736     1.7736    -0.0000
  1 H      0.6531     1.0000     0.3469     0.8943     0.8943     0.0000
  2 H      0.6496     1.0000     0.3504     0.8898     0.8898    -0.0000

  Mayer bond orders larger than 0.100000
B(  0-O ,  1-H ) :   0.8891 B(  0-O ,  2-H ) :   0.8845 

-------
TIMINGS
-------

Total SCF time: 0 days 0 hours 0 min 4 sec 

Total time                  ....       4.282 sec
Sum of individual times     ....       3.417 sec  ( 79.8%)

Fock matrix formation       ....       2.939 sec  ( 68.6%)
Diagonalization             ....       0.172 sec  (  4.0%)
Density matrix formation    ....       0.136 sec  (  3.2%)
Population analysis         ....       0.064 sec  (  1.5%)
Initial guess               ....       0.002 sec  (  0.0%)
Orbital Transformation      ....       0.000 sec  (  0.0%)
Orbital Orthonormalization  ....       0.001 sec  (  0.0%)
DIIS solution               ....       0.018 sec  (  0.4%)
SOSCF solution              ....       0.087 sec  (  2.0%)


           ************************************************************
           *        Program running with 6 parallel MPI-processes     *
           *              working on a common directory               *
           ************************************************************

------------------------------------------------------------------------------
                                ORCA  MP2 
------------------------------------------------------------------------------

Freezing NCore=2 chemical core electrons
MP2 will be done in the AO integral direct mode
The Q1-step will be done using symmetric double matrices
Dimension of the basis                    ...   43
Memory devoted for MP2                    ... 8000 MB   
Memory needed for all in one shot         ...    1 MB
Number of MOs that can be treated together... 25776      
MP2 density construction                  ... relaxed
The MP2 gradient is requested => amplitudes will be stored on disk
Total number of MOs              ...    4
Number of MOs treated per batch  ...    1 
Number of batches necessary      ...    1 
OPERATORS   0/  0 PASS   0
-----------------------------------------------
 MP2 CORRELATION ENERGY   :     -0.255508297 Eh
-----------------------------------------------


---------------------
MP2 DENSITY FORMATION
---------------------

Completing the external part of the density      ... done
Storing the unrelaxed density                    ... done

Calculating G(D)                                 ... done
Completing the Lagrangian                        ... done
Solving the Z-vector equations                   ... 

------------------------------------------------------------------------------
                           ORCA CP-SCF CALCULATION
------------------------------------------------------------------------------

Input orbitals are from        ... 16h2o.yoo.etal.boat.b.1h2o.dset-orca.engrad-mp2.def2tzvp_job2.gbw
Input Perturbation             ... 16h2o.yoo.etal.boat.b.1h2o.dset-orca.engrad-mp2.def2tzvp_job2.pin.tmp
Wavefunction output            ... 16h2o.yoo.etal.boat.b.1h2o.dset-orca.engrad-mp2.def2tzvp_job2.pout.tmp
Perturbation mode              ... Real perturbation (singlet)
Solver                         ... POPLE
Max. number of iterations      ... 128
Convergence tolerance          ... 1.000e-08
Integral handling              ... Direct
Number of perturbations        ... 1
Number of operators            ... 1
Orbital ranges used for CP-SCF:
 Operator 0:  Orbitals   0...  4  to   5... 42
Variables per vector in CP-SCF ... 190
Number of vectors sought       ... 1
     CP-SCF ITERATION   0: 
     CP-SCF ITERATION   1:      0.000107880824
     CP-SCF ITERATION   2:      0.000001948619
     CP-SCF ITERATION   3:      0.000000051092
     CP-SCF ITERATION   4:      0.000000000676
                                                 ... done
Finalizing the relaxed density                   ... done
Transforming P to the AO basis                   ... done
Storing the relaxed density                      ... done

------------------------------------
ENERGY WEIGHTED DENSITY FINALIZATION
------------------------------------

Gathering the parts of the W-matrix              ...                                                      done
Forming the Z-density                            ... done
Transforming Z to the AO basis                   ... done
Calculating G(Z)                                 ... done
Finalizing the W-matrix                          ...                                                      done
[...]
  VA   - Mayer's total valence
  BVA  - Mayer's bonded valence
  FA   - Mayer's free valence

  ATOM       NA         ZA         QA         VA         BVA        FA
  0 O      8.6931     8.0000    -0.6931     1.7774     1.7774    -0.0000
  1 H      0.6538     1.0000     0.3462     0.8937     0.8937    -0.0000
  2 H      0.6531     1.0000     0.3469     0.8928     0.8928    -0.0000

  Mayer bond orders larger than 0.100000
B(  0-O ,  1-H ) :   0.8891 B(  0-O ,  2-H ) :   0.8882 

-------
TIMINGS
-------

Total SCF time: 0 days 0 hours 0 min 5 sec 

Total time                  ....       5.383 sec
Sum of individual times     ....       4.186 sec  ( 77.8%)

Fock matrix formation       ....       3.498 sec  ( 65.0%)
Diagonalization             ....       0.236 sec  (  4.4%)
Density matrix formation    ....       0.250 sec  (  4.6%)
Population analysis         ....       0.066 sec  (  1.2%)
Initial guess               ....       0.018 sec  (  0.3%)
Orbital Transformation      ....       0.000 sec  (  0.0%)
Orbital Orthonormalization  ....       0.008 sec  (  0.1%)
DIIS solution               ....       0.055 sec  (  1.0%)
SOSCF solution              ....       0.062 sec  (  1.2%)


           ************************************************************
           *        Program running with 6 parallel MPI-processes     *
           *              working on a common directory               *
           ************************************************************

------------------------------------------------------------------------------
                                ORCA  MP2 
------------------------------------------------------------------------------

Freezing NCore=2 chemical core electrons
MP2 will be done in the AO integral direct mode
The Q1-step will be done using symmetric double matrices
Dimension of the basis                    ...   43
Memory devoted for MP2                    ... 8000 MB   
Memory needed for all in one shot         ...    1 MB
Number of MOs that can be treated together... 25776      
MP2 density construction                  ... relaxed
The MP2 gradient is requested => amplitudes will be stored on disk
Total number of MOs              ...    4
Number of MOs treated per batch  ...    1 
Number of batches necessary      ...    1 
OPERATORS   0/  0 PASS   0
-----------------------------------------------
 MP2 CORRELATION ENERGY   :     -0.255789595 Eh
-----------------------------------------------


---------------------
MP2 DENSITY FORMATION
---------------------

Completing the external part of the density      ... done
Storing the unrelaxed density                    ... done

Calculating G(D)                                 ... done
Completing the Lagrangian                        ... done
Solving the Z-vector equations                   ... 

------------------------------------------------------------------------------
                           ORCA CP-SCF CALCULATION
------------------------------------------------------------------------------

Input orbitals are from        ... 16h2o.yoo.etal.boat.b.1h2o.dset-orca.engrad-mp2.def2tzvp_job16.gbw
Input Perturbation             ... 16h2o.yoo.etal.boat.b.1h2o.dset-orca.engrad-mp2.def2tzvp_job16.pin.tmp
Wavefunction output            ... 16h2o.yoo.etal.boat.b.1h2o.dset-orca.engrad-mp2.def2tzvp_job16.pout.tmp
Perturbation mode              ... Real perturbation (singlet)
Solver                         ... POPLE
Max. number of iterations      ... 128
Convergence tolerance          ... 1.000e-08
Integral handling              ... Direct
Number of perturbations        ... 1
Number of operators            ... 1
Orbital ranges used for CP-SCF:
 Operator 0:  Orbitals   0...  4  to   5... 42
Variables per vector in CP-SCF ... 190
Number of vectors sought       ... 1
     CP-SCF ITERATION   0: 
     CP-SCF ITERATION   1:      0.000110835845
     CP-SCF ITERATION   2:      0.000002040591
     CP-SCF ITERATION   3:      0.000000054969
     CP-SCF ITERATION   4:      0.000000000722
                                                 ... done
Finalizing the relaxed density                   ... done
Transforming P to the AO basis                   ... done
Storing the relaxed density                      ... done

------------------------------------
ENERGY WEIGHTED DENSITY FINALIZATION
------------------------------------

Gathering the parts of the W-matrix              ...                                                      done
Forming the Z-density                            ... done
Transforming Z to the AO basis                   ... done
Calculating G(Z)                                 ... done
Finalizing the W-matrix                          ...                                                      done
Transforming W to the AO basis and storing       ... done

                *********************************************
                * UNRELAXED MP2 DENSITY POPULATION ANALYSIS *
                *********************************************

------------------------------------------------------------------------------
                           ORCA POPULATION ANALYSIS
------------------------------------------------------------------------------
Input electron density              ... 16h2o.yoo.etal.boat.b.1h2o.dset-orca.engrad-mp2.def2tzvp_job16.pmp2ur
BaseName (.gbw .S,...)              ... 16h2o.yoo.etal.boat.b.1h2o.dset-orca.engrad-mp2.def2tzvp_job16

                    ********************************
                    * MULLIKEN POPULATION ANALYSIS *
                    ********************************

-----------------------
MULLIKEN ATOMIC CHARGES
-----------------------
   0 O :   -0.688306
   1 H :    0.343857
   2 H :    0.344449
Sum of atomic charges:   -0.0000000

--------------------------------
MULLIKEN REDUCED ORBITAL CHARGES
--------------------------------
  0 O s       :     3.811987  s :     3.811987
      pz      :     1.526201  p :     4.819683
      px      :     1.615565
      py      :     1.677917
      dz2     :     0.015849  d :     0.052577
      dxz     :     0.007256
      dyz     :     0.009056
      dx2y2   :     0.007855
      dxy     :     0.012561
      f0      :     0.000516  f :     0.004059
      f+1     :     0.000480
      f-1     :     0.000906
      f+2     :     0.000429
      f-2     :     0.000426
      f+3     :     0.000467
      f-3     :     0.000835
  1 H s       :     0.610075  s :     0.610075
      pz      :     0.011560  p :     0.046068
      px      :     0.017891
      py      :     0.016617
  2 H s       :     0.610214  s :     0.610214
      pz      :     0.018423  p :     0.045337
      px      :     0.011961
      py      :     0.014954


                     *******************************
                     * LOEWDIN POPULATION ANALYSIS *
                     *******************************

----------------------
LOEWDIN ATOMIC CHARGES
----------------------
   0 O :   -0.335890
   1 H :    0.165616
   2 H :    0.170274

-------------------------------
LOEWDIN REDUCED ORBITAL CHARGES
-------------------------------
  0 O s       :     3.477908  s :     3.477908
      pz      :     1.529456  p :     4.792197
      px      :     1.612610
      py      :     1.650131
      dz2     :     0.020077  d :     0.060889
      dxz     :     0.006052
      dyz     :     0.011091
      dx2y2   :     0.007652
      dxy     :     0.016017
      f0      :     0.000665  f :     0.004896
      f+1     :     0.000690
      f-1     :     0.001183
      f+2     :     0.000457
      f-2     :     0.000387
      f+3     :     0.000434
      f-3     :     0.001080
  1 H s       :     0.675415  s :     0.675415
      pz      :     0.031041  p :     0.158969
      px      :     0.072655
      py      :     0.055273
  2 H s       :     0.673969  s :     0.673969
      pz      :     0.077972  p :     0.155757
      px      :     0.033099
      py      :     0.044686


                      *****************************
                      * MAYER POPULATION ANALYSIS *
                      *****************************

  NA   - Mulliken gross atomic population
  ZA   - Total nuclear charge
  QA   - Mulliken gross atomic charge
  VA   - Mayer's total valence
  BVA  - Mayer's bonded valence
  FA   - Mayer's free valence

  ATOM       NA         ZA         QA         VA         BVA        FA
  0 O      8.6883     8.0000    -0.6883     2.0804     1.6943     0.3861
  1 H      0.6561     1.0000     0.3439     0.8996     0.8520     0.0476
  2 H      0.6556     1.0000     0.3444     0.8988     0.8506     0.0481

  Mayer bond orders larger than 0.100000
B(  0-O ,  1-H ) :   0.8478 B(  0-O ,  2-H ) :   0.8465 


                *******************************************
                * RELAXED MP2 DENSITY POPULATION ANALYSIS *
                *******************************************

------------------------------------------------------------------------------
                           ORCA POPULATION ANALYSIS
------------------------------------------------------------------------------
Input electron density              ... 16h2o.yoo.etal.boat.b.1h2o.dset-orca.engrad-mp2.def2tzvp_job16.pmp2re
BaseName (.gbw .S,...)              ... 16h2o.yoo.etal.boat.b.1h2o.dset-orca.engrad-mp2.def2tzvp_job16

                    ********************************
                    * MULLIKEN POPULATION ANALYSIS *
                    ********************************

-----------------------
MULLIKEN ATOMIC CHARGES
-----------------------
   0 O :   -0.675595
   1 H :    0.337457
   2 H :    0.338138
Sum of atomic charges:   -0.0000000

--------------------------------
MULLIKEN REDUCED ORBITAL CHARGES
--------------------------------
  0 O s       :     3.817334  s :     3.817334
      pz      :     1.519849  p :     4.804044
      px      :     1.609077
      py      :     1.675119
      dz2     :     0.014668  d :     0.050231
      dxz     :     0.007366
      dyz     :     0.008661
      dx2y2   :     0.007771
      dxy     :     0.011765
      f0      :     0.000506  f :     0.003986
      f+1     :     0.000469
      f-1     :     0.000879
      f+2     :     0.000426
      f-2     :     0.000427
      f+3     :     0.000467
      f-3     :     0.000812
  1 H s       :     0.615753  s :     0.615753
      pz      :     0.012285  p :     0.046790
      px      :     0.017620
      py      :     0.016885
  2 H s       :     0.615818  s :     0.615818
      pz      :     0.017770  p :     0.046044
      px      :     0.012785
      py      :     0.015489


                     *******************************
                     * LOEWDIN POPULATION ANALYSIS *
                     *******************************

----------------------
LOEWDIN ATOMIC CHARGES
----------------------
   0 O :   -0.339221
   1 H :    0.167257
   2 H :    0.171964

-------------------------------
LOEWDIN REDUCED ORBITAL CHARGES
-------------------------------
  0 O s       :     3.480258  s :     3.480258
      pz      :     1.530743  p :     4.794537
      px      :     1.612658
      py      :     1.651136
      dz2     :     0.019401  d :     0.059510
      dxz     :     0.006132
      dyz     :     0.010803
      dx2y2   :     0.007618
      dxy     :     0.015555
      f0      :     0.000665  f :     0.004916
      f+1     :     0.000686
      f-1     :     0.001196
      f+2     :     0.000458
      f-2     :     0.000388
      f+3     :     0.000435
      f-3     :     0.001087
  1 H s       :     0.673627  s :     0.673627
      pz      :     0.031394  p :     0.159116
      px      :     0.072407
      py      :     0.055315
  2 H s       :     0.672098  s :     0.672098
      pz      :     0.077294  p :     0.155938
      px      :     0.033698
      py      :     0.044946


                      *****************************
                      * MAYER POPULATION ANALYSIS *
                      *****************************

  NA   - Mulliken gross atomic population
  ZA   - Total nuclear charge
  QA   - Mulliken gross atomic charge
  VA   - Mayer's total valence
  BVA  - Mayer's bonded valence
  FA   - Mayer's free valence

  ATOM       NA         ZA         QA         VA         BVA        FA
  0 O      8.6756     8.0000    -0.6756     2.0844     1.7030     0.3813
  1 H      0.6625     1.0000     0.3375     0.9042     0.8565     0.0477
  2 H      0.6619     1.0000     0.3381     0.9033     0.8551     0.0482

  Mayer bond orders larger than 0.100000
B(  0-O ,  1-H ) :   0.8522 B(  0-O ,  2-H ) :   0.8508 


----------------------------------
MP2 DERIVATIVE INTEGRAL GENERATION
----------------------------------


Input Wavefunction Amplitudes       ... 16h2o.yoo.etal.boat.b.1h2o.dset-orca.engrad-mp2.def2tzvp_job16.mp2tsaa.tmp
Input Correlated Electron Density   ... 16h2o.yoo.etal.boat.b.1h2o.dset-orca.engrad-mp2.def2tzvp_job16.pmp2re
Input Energy Weighted Density       ... 16h2o.yoo.etal.boat.b.1h2o.dset-orca.engrad-mp2.def2tzvp_job16.wmp2.tmp
Input SCF Electron Density          ... 16h2o.yoo.etal.boat.b.1h2o.dset-orca.engrad-mp2.def2tzvp_job16.scfp

One-Electron Terms    ...
                        ... One-Electron Terms done
Prescreening matrices              ... done

Batch handling in the gradient evaluation:
Memory available                      ... 8000.0 MB
Memory per occupied orbital in Q2     ...    0.1 MB
Memory per occupied orbital in Q3     ...    0.0 MB
Total memory requirement per |i>      ...    0.1 MB
Max. Number of orbitals possible      ... 110341
Number of orbitals treated per batch  ...      4
Number of batches to be done          ...      1
Batch   0: i=    1 ...     4

---------------------------------------
MP2 TOTAL ENERGY:      -76.312485656 Eh
---------------------------------------

The final MP2 gradient
  0:   0.01123130  -0.00067932  -0.01640044
  1:  -0.01053017  -0.00778757  -0.00123814
  2:  -0.00070113   0.00846690   0.01763858

-----------------------------------
NORM OF THE MP2 GRADIENT:  0.030854
-----------------------------------

-------------------------   --------------------
FINAL SINGLE POINT ENERGY       -76.312485656358
-------------------------   --------------------


                            ***************************************
                            *     ORCA property calculations      *
                            ***************************************

                                    ---------------------
                                    Active property flags
                                    ---------------------
   (+) Dipole Moment


------------------------------------------------------------------------------
                       ORCA ELECTRIC PROPERTIES CALCULATION
------------------------------------------------------------------------------

Dipole Moment Calculation                       ... on
Quadrupole Moment Calculation                   ... off
Polarizability Calculation                      ... off
GBWName                                         ... 16h2o.yoo.etal.boat.b.1h2o.dset-orca.engrad-mp2.def2tzvp_job16.gbw
Electron density file                           ... 16h2o.yoo.etal.boat.b.1h2o.dset-orca.engrad-mp2.def2tzvp_job16.scfp
The origin for moment calculation is the CENTER OF MASS  = ( 0.080372, -3.505024 -1.008041)

-------------
DIPOLE MOMENT
-------------
                                X             Y             Z
Electronic contribution:      0.10051       0.01727      -0.10072
Nuclear contribution   :     -0.70875      -0.12895       0.69610
                        -----------------------------------------
Total Dipole Moment    :     -0.60824      -0.11168       0.59538
                        -----------------------------------------
Magnitude (a.u.)       :      0.85844
Magnitude (Debye)      :      2.18197



--------------------
Rotational spectrum 
--------------------
 
Rotational constants in cm-1:    26.005271    13.987430     9.095332 
Rotational constants in MHz : 779618.403839 419332.613717 272671.208579 

 Dipole components along the rotational axes: 
x,y,z [a.u.] :     0.011707    -0.858355    -0.000000 
x,y,z [Debye]:     0.029756    -2.181766    -0.000001 

 

                         *** MP2 UNRELAXED DENSITY ***

------------------------------------------------------------------------------
                       ORCA ELECTRIC PROPERTIES CALCULATION
------------------------------------------------------------------------------

Dipole Moment Calculation                       ... on
Quadrupole Moment Calculation                   ... off
Polarizability Calculation                      ... off
GBWName                                         ... 16h2o.yoo.etal.boat.b.1h2o.dset-orca.engrad-mp2.def2tzvp_job16.gbw
Electron density file                           ... 16h2o.yoo.etal.boat.b.1h2o.dset-orca.engrad-mp2.def2tzvp_job16.pmp2ur
The origin for moment calculation is the CENTER OF MASS  = ( 0.080372, -3.505024 -1.008041)

-------------
DIPOLE MOMENT
-------------
                                X             Y             Z
Electronic contribution:      0.10758       0.01849      -0.10779
Nuclear contribution   :     -0.70875      -0.12895       0.69610
                        -----------------------------------------
Total Dipole Moment    :     -0.60116      -0.11046       0.58830
                        -----------------------------------------
Magnitude (a.u.)       :      0.84835
Magnitude (Debye)      :      2.15634



--------------------
Rotational spectrum 
--------------------
 
Rotational constants in cm-1:    26.005271    13.987430     9.095332 
Rotational constants in MHz : 779618.403839 419332.613717 272671.208579 

 Dipole components along the rotational axes: 
x,y,z [a.u.] :     0.011431    -0.848275    -0.000000 
x,y,z [Debye]:     0.029054    -2.156143    -0.000001 

 

                           *** MP2 RELAXED DENSITY ***

------------------------------------------------------------------------------
                       ORCA ELECTRIC PROPERTIES CALCULATION
------------------------------------------------------------------------------

Dipole Moment Calculation                       ... on
Quadrupole Moment Calculation                   ... off
Polarizability Calculation                      ... off
GBWName                                         ... 16h2o.yoo.etal.boat.b.1h2o.dset-orca.engrad-mp2.def2tzvp_job16.gbw
Electron density file                           ... 16h2o.yoo.etal.boat.b.1h2o.dset-orca.engrad-mp2.def2tzvp_job16.pmp2re
The origin for moment calculation is the CENTER OF MASS  = ( 0.080372, -3.505024 -1.008041)

-------------
DIPOLE MOMENT
-------------
                                X             Y             Z
Electronic contribution:      0.11538       0.02001      -0.11527
Nuclear contribution   :     -0.70875      -0.12895       0.69610
                        -----------------------------------------
Total Dipole Moment    :     -0.59337      -0.10895       0.58083
                        -----------------------------------------
Magnitude (a.u.)       :      0.83745
Magnitude (Debye)      :      2.12862



--------------------
Rotational spectrum 
--------------------
 
Rotational constants in cm-1:    26.005271    13.987430     9.095332 
Rotational constants in MHz : 779618.403839 419332.613717 272671.208579 

 Dipole components along the rotational axes: 
x,y,z [a.u.] :     0.011428    -0.837368    -0.000000 
x,y,z [Debye]:     0.029047    -2.128420    -0.000000 

 

Timings for individual modules:

Sum of individual times         ...       11.255 sec (=   0.188 min)
GTO integral calculation        ...        1.591 sec (=   0.027 min)  14.1 %
SCF iterations                  ...        6.454 sec (=   0.108 min)  57.3 %
MP2 module                      ...        3.210 sec (=   0.053 min)  28.5 %



                             ****ORCA TERMINATED NORMALLY****
TOTAL RUN TIME: 0 days 0 hours 3 minutes 8 seconds 85 msec
