
                                 *****************
                                 * O   R   C   A *
                                 *****************

           --- An Ab Initio, DFT and Semiempirical electronic structure package ---

                  #######################################################
                  #                        -***-                        #
                  #          Department of theory and spectroscopy      #
                  #               Directorship: Frank Neese             #
                  #        Max Planck Institute fuer Kohlenforschung    #
                  #                Kaiser Wilhelm Platz 1               #
                  #                 D-45470 Muelheim/Ruhr               #
                  #                      Germany                        #
                  #                                                     #
                  #                  All rights reserved                #
                  #                        -***-                        #
                  #######################################################


                         Program Version 4.2.0 -  RELEASE  -


 With contributions from (in alphabetic order):
   Daniel Aravena         : Magnetic Suceptibility
   Michael Atanasov       : Ab Initio Ligand Field Theory (pilot matlab implementation)
   Alexander A. Auer      : GIAO ZORA, VPT2
   Ute Becker             : Parallelization
   Giovanni Bistoni       : ED, misc. LED, open-shell LED, HFLED
   Martin Brehm           : Molecular dynamics
   Dmytro Bykov           : SCF Hessian
   Vijay G. Chilkuri      : MRCI spin determinant printing, contributions to CSF-ICE
   Dipayan Datta          : RHF DLPNO-CCSD density
   Achintya Kumar Dutta   : EOM-CC, STEOM-CC
   Dmitry Ganyushin       : Spin-Orbit,Spin-Spin,Magnetic field MRCI
   Miquel Garcia          : C-PCM Hessian, Gaussian charge scheme
   Yang Guo               : DLPNO-NEVPT2, CIM, IAO-localization
   Andreas Hansen         : Spin unrestricted coupled pair/coupled cluster methods
   Benjamin Helmich-Paris : CASSCF linear response (MC-RPA)
   Lee Huntington         : MR-EOM, pCC
   Robert Izsak           : Overlap fitted RIJCOSX, COSX-SCS-MP3, EOM
   Christian Kollmar      : KDIIS, OOCD, Brueckner-CCSD(T), CCSD density
   Simone Kossmann        : Meta GGA functionals, TD-DFT gradient, OOMP2, MP2 Hessian
   Martin Krupicka        : AUTO-CI
   Lucas Lang             : DCDCAS
   Dagmar Lenk            : GEPOL surface, SMD
   Dimitrios Liakos       : Extrapolation schemes; Compound Job, initial MDCI parallelization
   Dimitrios Manganas     : Further ROCIS development; embedding schemes
   Dimitrios Pantazis     : SARC Basis sets
   Taras Petrenko         : DFT Hessian,TD-DFT gradient, ASA, ECA, R-Raman, ABS, FL, XAS/XES, NRVS
   Peter Pinski           : DLPNO-MP2, DLPNO-MP2 Gradient
   Christoph Reimann      : Effective Core Potentials
   Marius Retegan         : Local ZFS, SOC
   Christoph Riplinger    : Optimizer, TS searches, QM/MM, DLPNO-CCSD(T), (RO)-DLPNO pert. Triples
   Tobias Risthaus        : Range-separated hybrids, TD-DFT gradient, RPA, STAB
   Michael Roemelt        : Original ROCIS implementation
   Masaaki Saitow         : Open-shell DLPNO-CCSD energy and density
   Barbara Sandhoefer     : DKH picture change effects
   Avijit Sen             : IP-ROCIS
   Kantharuban Sivalingam : CASSCF convergence, NEVPT2, FIC-MRCI
   Bernardo de Souza      : ESD, SOC TD-DFT
   Georgi Stoychev        : AutoAux, RI-MP2 NMR
   Willem Van den Heuvel  : Paramagnetic NMR
   Boris Wezisla          : Elementary symmetry handling
   Frank Wennmohs         : Technical directorship


 We gratefully acknowledge several colleagues who have allowed us to
 interface, adapt or use parts of their codes:
   Stefan Grimme, W. Hujo, H. Kruse,             : VdW corrections, initial TS optimization,
                  C. Bannwarth                     DFT functionals, gCP, sTDA/sTD-DF
   Ed Valeev, F. Pavosevic, A. Kumar             : LibInt (2-el integral package), F12 methods
   Garnet Chan, S. Sharma, J. Yang, R. Olivares  : DMRG
   Ulf Ekstrom                                   : XCFun DFT Library
   Mihaly Kallay                                 : mrcc  (arbitrary order and MRCC methods)
   Andreas Klamt, Michael Diedenhofen            : otool_cosmo (COSMO solvation model)
   Jiri Pittner, Ondrej Demel                    : Mk-CCSD
   Frank Weinhold                                : gennbo (NPA and NBO analysis)
   Christopher J. Cramer and Donald G. Truhlar   : smd solvation model
   Lars Goerigk                                  : TD-DFT with DH, B97 family of functionals
   V. Asgeirsson, H. Jonsson                     : NEB implementation
   FAccTs GmbH                                   : IRC, NEB, NEB-TS, Multilevel, MM, QM/MM, CI optimization
   S Lehtola, MJT Oliveira, MAL Marques          : LibXC Library


 Your calculation uses the libint2 library for the computation of 2-el integrals
 For citations please refer to: http://libint.valeyev.net

 Your ORCA version has been built with support for libXC version: 4.2.3
 For citations please refer to: https://tddft.org/programs/libxc/

 This ORCA versions uses:
   CBLAS   interface :  Fast vector & matrix operations
   LAPACKE interface :  Fast linear algebra routines
   SCALAPACK package :  Parallel linear algebra routines


----- Orbital basis set information -----
Your calculation utilizes the basis: def2-TZVP
   F. Weigend and R. Ahlrichs, Phys. Chem. Chem. Phys. 7, 3297 (2005).

================================================================================
                                        WARNINGS
                       Please study these warnings very carefully!
================================================================================


WARNING: The frozen-core approximation for MP2-gradient calculations is turned on by default.

INFO   : the flag for use of LIBINT has been found!

----- Orbital basis set information -----
Your calculation utilizes the basis: def2-TZVP
   F. Weigend and R. Ahlrichs, Phys. Chem. Chem. Phys. 7, 3297 (2005).

================================================================================
                                        WARNINGS
                       Please study these warnings very carefully!
================================================================================


WARNING: The frozen-core approximation for MP2-gradient calculations is turned on by default.

INFO   : the flag for use of LIBINT has been found!

----- Orbital basis set information -----
Your calculation utilizes the basis: def2-TZVP
   F. Weigend and R. Ahlrichs, Phys. Chem. Chem. Phys. 7, 3297 (2005).

================================================================================
                                        WARNINGS
                       Please study these warnings very carefully!
================================================================================


WARNING: The frozen-core approximation for MP2-gradient calculations is turned on by default.

INFO   : the flag for use of LIBINT has been found!

----- Orbital basis set information -----
Your calculation utilizes the basis: def2-TZVP
   F. Weigend and R. Ahlrichs, Phys. Chem. Chem. Phys. 7, 3297 (2005).

================================================================================
                                        WARNINGS
                       Please study these warnings very carefully!
================================================================================


WARNING: The frozen-core approximation for MP2-gradient calculations is turned on by default.

INFO   : the flag for use of LIBINT has been found!

----- Orbital basis set information -----
Your calculation utilizes the basis: def2-TZVP
   F. Weigend and R. Ahlrichs, Phys. Chem. Chem. Phys. 7, 3297 (2005).

================================================================================
                                        WARNINGS
                       Please study these warnings very carefully!
================================================================================


WARNING: The frozen-core approximation for MP2-gradient calculations is turned on by default.

INFO   : the flag for use of LIBINT has been found!

----- Orbital basis set information -----
Your calculation utilizes the basis: def2-TZVP
   F. Weigend and R. Ahlrichs, Phys. Chem. Chem. Phys. 7, 3297 (2005).

================================================================================
                                        WARNINGS
                       Please study these warnings very carefully!
================================================================================


WARNING: The frozen-core approximation for MP2-gradient calculations is turned on by default.

INFO   : the flag for use of LIBINT has been found!

----- Orbital basis set information -----
Your calculation utilizes the basis: def2-TZVP
   F. Weigend and R. Ahlrichs, Phys. Chem. Chem. Phys. 7, 3297 (2005).

================================================================================
                                        WARNINGS
                       Please study these warnings very carefully!
================================================================================


WARNING: The frozen-core approximation for MP2-gradient calculations is turned on by default.

INFO   : the flag for use of LIBINT has been found!

----- Orbital basis set information -----
Your calculation utilizes the basis: def2-TZVP
   F. Weigend and R. Ahlrichs, Phys. Chem. Chem. Phys. 7, 3297 (2005).

================================================================================
                                        WARNINGS
                       Please study these warnings very carefully!
================================================================================


WARNING: The frozen-core approximation for MP2-gradient calculations is turned on by default.

INFO   : the flag for use of LIBINT has been found!

----- Orbital basis set information -----
Your calculation utilizes the basis: def2-TZVP
   F. Weigend and R. Ahlrichs, Phys. Chem. Chem. Phys. 7, 3297 (2005).

================================================================================
                                        WARNINGS
                       Please study these warnings very carefully!
================================================================================


WARNING: The frozen-core approximation for MP2-gradient calculations is turned on by default.

INFO   : the flag for use of LIBINT has been found!

----- Orbital basis set information -----
Your calculation utilizes the basis: def2-TZVP
   F. Weigend and R. Ahlrichs, Phys. Chem. Chem. Phys. 7, 3297 (2005).

================================================================================
                                        WARNINGS
                       Please study these warnings very carefully!
================================================================================


WARNING: The frozen-core approximation for MP2-gradient calculations is turned on by default.

INFO   : the flag for use of LIBINT has been found!

----- Orbital basis set information -----
Your calculation utilizes the basis: def2-TZVP
   F. Weigend and R. Ahlrichs, Phys. Chem. Chem. Phys. 7, 3297 (2005).

================================================================================
                                        WARNINGS
                       Please study these warnings very carefully!
================================================================================


WARNING: The frozen-core approximation for MP2-gradient calculations is turned on by default.

INFO   : the flag for use of LIBINT has been found!

----- Orbital basis set information -----
Your calculation utilizes the basis: def2-TZVP
   F. Weigend and R. Ahlrichs, Phys. Chem. Chem. Phys. 7, 3297 (2005).

================================================================================
                                        WARNINGS
                       Please study these warnings very carefully!
================================================================================


WARNING: The frozen-core approximation for MP2-gradient calculations is turned on by default.

INFO   : the flag for use of LIBINT has been found!

----- Orbital basis set information -----
Your calculation utilizes the basis: def2-TZVP
   F. Weigend and R. Ahlrichs, Phys. Chem. Chem. Phys. 7, 3297 (2005).

================================================================================
                                        WARNINGS
                       Please study these warnings very carefully!
================================================================================


WARNING: The frozen-core approximation for MP2-gradient calculations is turned on by default.

INFO   : the flag for use of LIBINT has been found!

----- Orbital basis set information -----
Your calculation utilizes the basis: def2-TZVP
   F. Weigend and R. Ahlrichs, Phys. Chem. Chem. Phys. 7, 3297 (2005).

================================================================================
                                        WARNINGS
                       Please study these warnings very carefully!
================================================================================


WARNING: The frozen-core approximation for MP2-gradient calculations is turned on by default.

INFO   : the flag for use of LIBINT has been found!

----- Orbital basis set information -----
Your calculation utilizes the basis: def2-TZVP
   F. Weigend and R. Ahlrichs, Phys. Chem. Chem. Phys. 7, 3297 (2005).

================================================================================
                                        WARNINGS
                       Please study these warnings very carefully!
================================================================================


WARNING: The frozen-core approximation for MP2-gradient calculations is turned on by default.

INFO   : the flag for use of LIBINT has been found!

----- Orbital basis set information -----
Your calculation utilizes the basis: def2-TZVP
   F. Weigend and R. Ahlrichs, Phys. Chem. Chem. Phys. 7, 3297 (2005).

================================================================================
                                        WARNINGS
                       Please study these warnings very carefully!
================================================================================


WARNING: The frozen-core approximation for MP2-gradient calculations is turned on by default.

INFO   : the flag for use of LIBINT has been found!

----- Orbital basis set information -----
Your calculation utilizes the basis: def2-TZVP
   F. Weigend and R. Ahlrichs, Phys. Chem. Chem. Phys. 7, 3297 (2005).

================================================================================
                                        WARNINGS
                       Please study these warnings very carefully!
================================================================================


WARNING: The frozen-core approximation for MP2-gradient calculations is turned on by default.

INFO   : the flag for use of LIBINT has been found!

----- Orbital basis set information -----
Your calculation utilizes the basis: def2-TZVP
   F. Weigend and R. Ahlrichs, Phys. Chem. Chem. Phys. 7, 3297 (2005).

================================================================================
                                        WARNINGS
                       Please study these warnings very carefully!
================================================================================


WARNING: The frozen-core approximation for MP2-gradient calculations is turned on by default.

INFO   : the flag for use of LIBINT has been found!

----- Orbital basis set information -----
Your calculation utilizes the basis: def2-TZVP
   F. Weigend and R. Ahlrichs, Phys. Chem. Chem. Phys. 7, 3297 (2005).

================================================================================
                                        WARNINGS
                       Please study these warnings very carefully!
================================================================================


WARNING: The frozen-core approximation for MP2-gradient calculations is turned on by default.

INFO   : the flag for use of LIBINT has been found!

----- Orbital basis set information -----
Your calculation utilizes the basis: def2-TZVP
   F. Weigend and R. Ahlrichs, Phys. Chem. Chem. Phys. 7, 3297 (2005).

================================================================================
                                        WARNINGS
                       Please study these warnings very carefully!
================================================================================


WARNING: The frozen-core approximation for MP2-gradient calculations is turned on by default.

INFO   : the flag for use of LIBINT has been found!

----- Orbital basis set information -----
Your calculation utilizes the basis: def2-TZVP
   F. Weigend and R. Ahlrichs, Phys. Chem. Chem. Phys. 7, 3297 (2005).

================================================================================
                                        WARNINGS
                       Please study these warnings very carefully!
================================================================================


WARNING: The frozen-core approximation for MP2-gradient calculations is turned on by default.

INFO   : the flag for use of LIBINT has been found!

----- Orbital basis set information -----
Your calculation utilizes the basis: def2-TZVP
   F. Weigend and R. Ahlrichs, Phys. Chem. Chem. Phys. 7, 3297 (2005).

================================================================================
                                        WARNINGS
                       Please study these warnings very carefully!
================================================================================


WARNING: The frozen-core approximation for MP2-gradient calculations is turned on by default.

INFO   : the flag for use of LIBINT has been found!

----- Orbital basis set information -----
Your calculation utilizes the basis: def2-TZVP
   F. Weigend and R. Ahlrichs, Phys. Chem. Chem. Phys. 7, 3297 (2005).

================================================================================
                                        WARNINGS
                       Please study these warnings very carefully!
================================================================================


WARNING: The frozen-core approximation for MP2-gradient calculations is turned on by default.

INFO   : the flag for use of LIBINT has been found!

----- Orbital basis set information -----
Your calculation utilizes the basis: def2-TZVP
   F. Weigend and R. Ahlrichs, Phys. Chem. Chem. Phys. 7, 3297 (2005).

================================================================================
                                        WARNINGS
                       Please study these warnings very carefully!
================================================================================


WARNING: The frozen-core approximation for MP2-gradient calculations is turned on by default.

INFO   : the flag for use of LIBINT has been found!

----- Orbital basis set information -----
Your calculation utilizes the basis: def2-TZVP
   F. Weigend and R. Ahlrichs, Phys. Chem. Chem. Phys. 7, 3297 (2005).

================================================================================
                                        WARNINGS
                       Please study these warnings very carefully!
================================================================================


WARNING: The frozen-core approximation for MP2-gradient calculations is turned on by default.

INFO   : the flag for use of LIBINT has been found!

----- Orbital basis set information -----
Your calculation utilizes the basis: def2-TZVP
   F. Weigend and R. Ahlrichs, Phys. Chem. Chem. Phys. 7, 3297 (2005).

================================================================================
                                        WARNINGS
                       Please study these warnings very carefully!
================================================================================


WARNING: The frozen-core approximation for MP2-gradient calculations is turned on by default.

INFO   : the flag for use of LIBINT has been found!

----- Orbital basis set information -----
Your calculation utilizes the basis: def2-TZVP
   F. Weigend and R. Ahlrichs, Phys. Chem. Chem. Phys. 7, 3297 (2005).

================================================================================
                                        WARNINGS
                       Please study these warnings very carefully!
================================================================================


WARNING: The frozen-core approximation for MP2-gradient calculations is turned on by default.

INFO   : the flag for use of LIBINT has been found!

----- Orbital basis set information -----
Your calculation utilizes the basis: def2-TZVP
   F. Weigend and R. Ahlrichs, Phys. Chem. Chem. Phys. 7, 3297 (2005).

================================================================================
                                        WARNINGS
                       Please study these warnings very carefully!
================================================================================


WARNING: The frozen-core approximation for MP2-gradient calculations is turned on by default.

INFO   : the flag for use of LIBINT has been found!

----- Orbital basis set information -----
Your calculation utilizes the basis: def2-TZVP
   F. Weigend and R. Ahlrichs, Phys. Chem. Chem. Phys. 7, 3297 (2005).

================================================================================
                                        WARNINGS
                       Please study these warnings very carefully!
================================================================================


WARNING: The frozen-core approximation for MP2-gradient calculations is turned on by default.

INFO   : the flag for use of LIBINT has been found!

----- Orbital basis set information -----
Your calculation utilizes the basis: def2-TZVP
   F. Weigend and R. Ahlrichs, Phys. Chem. Chem. Phys. 7, 3297 (2005).

================================================================================
                                        WARNINGS
                       Please study these warnings very carefully!
================================================================================


WARNING: The frozen-core approximation for MP2-gradient calculations is turned on by default.

INFO   : the flag for use of LIBINT has been found!

----- Orbital basis set information -----
Your calculation utilizes the basis: def2-TZVP
   F. Weigend and R. Ahlrichs, Phys. Chem. Chem. Phys. 7, 3297 (2005).

================================================================================
                                        WARNINGS
                       Please study these warnings very carefully!
================================================================================


WARNING: The frozen-core approximation for MP2-gradient calculations is turned on by default.

INFO   : the flag for use of LIBINT has been found!

----- Orbital basis set information -----
Your calculation utilizes the basis: def2-TZVP
   F. Weigend and R. Ahlrichs, Phys. Chem. Chem. Phys. 7, 3297 (2005).

================================================================================
                                        WARNINGS
                       Please study these warnings very carefully!
================================================================================


WARNING: The frozen-core approximation for MP2-gradient calculations is turned on by default.

INFO   : the flag for use of LIBINT has been found!

----- Orbital basis set information -----
Your calculation utilizes the basis: def2-TZVP
   F. Weigend and R. Ahlrichs, Phys. Chem. Chem. Phys. 7, 3297 (2005).

================================================================================
                                        WARNINGS
                       Please study these warnings very carefully!
================================================================================


WARNING: The frozen-core approximation for MP2-gradient calculations is turned on by default.

INFO   : the flag for use of LIBINT has been found!

----- Orbital basis set information -----
Your calculation utilizes the basis: def2-TZVP
   F. Weigend and R. Ahlrichs, Phys. Chem. Chem. Phys. 7, 3297 (2005).

================================================================================
                                        WARNINGS
                       Please study these warnings very carefully!
================================================================================


WARNING: The frozen-core approximation for MP2-gradient calculations is turned on by default.

INFO   : the flag for use of LIBINT has been found!

----- Orbital basis set information -----
Your calculation utilizes the basis: def2-TZVP
   F. Weigend and R. Ahlrichs, Phys. Chem. Chem. Phys. 7, 3297 (2005).

================================================================================
                                        WARNINGS
                       Please study these warnings very carefully!
================================================================================


WARNING: The frozen-core approximation for MP2-gradient calculations is turned on by default.

INFO   : the flag for use of LIBINT has been found!

----- Orbital basis set information -----
Your calculation utilizes the basis: def2-TZVP
   F. Weigend and R. Ahlrichs, Phys. Chem. Chem. Phys. 7, 3297 (2005).

================================================================================
                                        WARNINGS
                       Please study these warnings very carefully!
================================================================================


WARNING: The frozen-core approximation for MP2-gradient calculations is turned on by default.

INFO   : the flag for use of LIBINT has been found!

================================================================================
                                       INPUT FILE
================================================================================
NAME = 4mecn.malloum.etal.dset.2mecn.dset-orca.engrad-mp2.def2tzvp.inp
|  1> # 4mecn.malloum.etal.dset.2mecn.dset-orca.engrad-mp2.def2tzvp
|  2> ! MP2 def2-TZVP EnGrad TightSCF FrozenCore
|  3> 
|  4> %pal
|  5>     nprocs 12
|  6> end
|  7> 
|  8> %maxcore 8000
|  9> 
| 10> %scf
| 11>     ConvForced true
| 12> end
| 13> 
| 14> *xyz 0 1
| 15> C  -1.726327696  -2.380428963   0.392771355
| 16> H  -1.685319696  -2.288273963   1.482074355
| 17> H  -0.924208696  -3.047668963   0.069245355
| 18> H  -2.696185696  -2.784864963   0.091715355
| 19> C  -1.531907696  -1.059754963  -0.198736645
| 20> N  -1.392984696  -0.005858963  -0.668984645
| 21> C   1.726329304   0.683935037  -1.041407645
| 22> H   0.924209304   1.007458037  -1.708647645
| 23> H   1.685325304  -0.405368963  -0.949251645
| 24> H   2.696186304   0.984993037  -1.445843645
| 25> C   1.531908304   1.275443037   0.279265355
| 26> N   1.392982304   1.745691037   1.333161355
| 27> *
| 28> 
| 29> 
| 30> $new_job
| 31> 
| 32> # 4mecn.malloum.etal.dset.2mecn.dset-orca.engrad-mp2.def2tzvp
| 33> ! MP2 def2-TZVP EnGrad TightSCF FrozenCore
| 34> 
| 35> %pal
| 36>     nprocs 12
| 37> end
| 38> 
| 39> %maxcore 8000
| 40> 
| 41> %scf
| 42>     ConvForced true
| 43> end
| 44> 
| 45> *xyz 0 1
| 46> C  -0.167508990  -2.249267963  -0.815091488
| 47> H  -0.126500990  -2.157112963   0.274211512
| 48> H   0.634610010  -2.916507963  -1.138617488
| 49> H  -1.137366990  -2.653703963  -1.116147488
| 50> C   0.026911010  -0.928593963  -1.406599488
| 51> N   0.165834010   0.125302037  -1.876847488
| 52> C  -0.167514990   2.249267037   0.815091512
| 53> H  -0.126508990   2.157111037  -0.274212488
| 54> H   0.634602010   2.916510037   1.138616512
| 55> H  -1.137373990   2.653699037   1.116148512
| 56> C   0.026910010   0.928594037   1.406599512
| 57> N   0.165838010  -0.125300963   1.876847512
| 58> *
| 59> 
| 60> 
| 61> $new_job
| 62> 
| 63> # 4mecn.malloum.etal.dset.2mecn.dset-orca.engrad-mp2.def2tzvp
| 64> ! MP2 def2-TZVP EnGrad TightSCF FrozenCore
| 65> 
| 66> %pal
| 67>     nprocs 12
| 68> end
| 69> 
| 70> %maxcore 8000
| 71> 
| 72> %scf
| 73>     ConvForced true
| 74> end
| 75> 
| 76> *xyz 0 1
| 77> C  -1.726330904  -1.041408633  -0.683931158
| 78> H  -1.685322904  -0.949253633   0.405371842
| 79> H  -0.924211904  -1.708648633  -1.007457158
| 80> H  -2.696188904  -1.445844633  -0.984987158
| 81> C  -1.531910904   0.279265367  -1.275439158
| 82> N  -1.392987904   1.333161367  -1.745687158
| 83> C   1.726334096   0.392772367   2.380423842
| 84> H   2.696194096   0.091718367   2.784856842
| 85> H   0.924218096   0.069244367   3.047666842
| 86> H   1.685324096   1.482075367   2.288269842
| 87> C   1.531911096  -0.198736633   1.059751842
| 88> N   1.392984096  -0.668984633   0.005855842
| 89> *
| 90> 
| 91> 
| 92> $new_job
| 93> 
| 94> # 4mecn.malloum.etal.dset.2mecn.dset-orca.engrad-mp2.def2tzvp
| 95> ! MP2 def2-TZVP EnGrad TightSCF FrozenCore
| 96> 
| 97> %pal
| 98>     nprocs 12
| 99> end
|100> 
|101> %maxcore 8000
|102> 
|103> %scf
|104>     ConvForced true
|105> end
|106> 
|107> *xyz 0 1
|108> C   1.726329928  -0.392767489  -2.380427671
|109> H   0.924209928  -0.069244489  -3.047667671
|110> H   1.685325928  -1.482071489  -2.288271671
|111> H   2.696186928  -0.091709489  -2.784863671
|112> C   1.531908928   0.198740511  -1.059754671
|113> N   1.392982928   0.668988511  -0.005858671
|114> C  -1.726333072   1.041403511   0.683934329
|115> H  -1.685327072   0.949247511  -0.405369671
|116> H  -0.924216072   1.708646511   1.007459329
|117> H  -2.696192072   1.445835511   0.984991329
|118> C  -1.531908072  -0.279269489   1.275442329
|119> N  -1.392980072  -1.333164489   1.745690329
|120> *
|121> 
|122> 
|123> $new_job
|124> 
|125> # 4mecn.malloum.etal.dset.2mecn.dset-orca.engrad-mp2.def2tzvp
|126> ! MP2 def2-TZVP EnGrad TightSCF FrozenCore
|127> 
|128> %pal
|129>     nprocs 12
|130> end
|131> 
|132> %maxcore 8000
|133> 
|134> %scf
|135>     ConvForced true
|136> end
|137> 
|138> *xyz 0 1
|139> C   0.167508014   0.815091841  -2.249267341
|140> H  -0.634611986   1.138614841  -2.916507341
|141> H   0.126504014  -0.274212159  -2.157111341
|142> H   1.137365014   1.116149841  -2.653703341
|143> C  -0.026912986   1.406599841  -0.928594341
|144> N  -0.165838986   1.876847841   0.125301659
|145> C   0.167516014  -0.815091159   2.249266659
|146> H   1.137376014  -1.116145159   2.653699659
|147> H  -0.634599986  -1.138619159   2.916509659
|148> H   0.126506014   0.274211841   2.157112659
|149> C  -0.026906986  -1.406600159   0.928594659
|150> N  -0.165833986  -1.876848159  -0.125301341
|151> *
|152> 
|153> 
|154> $new_job
|155> 
|156> # 4mecn.malloum.etal.dset.2mecn.dset-orca.engrad-mp2.def2tzvp
|157> ! MP2 def2-TZVP EnGrad TightSCF FrozenCore
|158> 
|159> %pal
|160>     nprocs 12
|161> end
|162> 
|163> %maxcore 8000
|164> 
|165> %scf
|166>     ConvForced true
|167> end
|168> 
|169> *xyz 0 1
|170> C  -1.726336280   2.380423842  -0.392768184
|171> H  -1.685330280   2.288267842  -1.482072184
|172> H  -0.924219280   3.047666842  -0.069243184
|173> H  -2.696195280   2.784855842  -0.091711184
|174> C  -1.531911280   1.059750842   0.198739816
|175> N  -1.392983280   0.005855842   0.668987816
|176> C   1.726334720  -0.683930158   1.041403816
|177> H   2.696194720  -0.984984158   1.445836816
|178> H   0.924218720  -1.007458158   1.708646816
|179> H   1.685324720   0.405372842   0.949249816
|180> C   1.531911720  -1.275439158  -0.279268184
|181> N   1.392984720  -1.745687158  -1.333164184
|182> *
|183> 
|184> 
|185> $new_job
|186> 
|187> # 4mecn.malloum.etal.dset.2mecn.dset-orca.engrad-mp2.def2tzvp
|188> ! MP2 def2-TZVP EnGrad TightSCF FrozenCore
|189> 
|190> %pal
|191>     nprocs 12
|192> end
|193> 
|194> %maxcore 8000
|195> 
|196> %scf
|197>     ConvForced true
|198> end
|199> 
|200> *xyz 0 1
|201> C   2.664895195  -0.574137690  -1.159749376
|202> H   2.555582195  -1.653656690  -1.030756376
|203> H   3.570760195  -0.356524690  -1.731162376
|204> H   1.788380195  -0.196546690  -1.694440376
|205> C   2.729585195   0.072039310   0.147912624
|206> N   2.769474195   0.589303310   1.188243624
|207> C  -2.664894805  -0.574139690  -1.159748376
|208> H  -2.555564805  -1.653655690  -1.030755376
|209> H  -1.788390805  -0.196535690  -1.694446376
|210> H  -3.570767805  -0.356540690  -1.731154376
|211> C  -2.729584805   0.072038310   0.147912624
|212> N  -2.769474805   0.589305310   1.188242624
|213> *
|214> 
|215> 
|216> $new_job
|217> 
|218> # 4mecn.malloum.etal.dset.2mecn.dset-orca.engrad-mp2.def2tzvp
|219> ! MP2 def2-TZVP EnGrad TightSCF FrozenCore
|220> 
|221> %pal
|222>     nprocs 12
|223> end
|224> 
|225> %maxcore 8000
|226> 
|227> %scf
|228>     ConvForced true
|229> end
|230> 
|231> *xyz 0 1
|232> C   1.306124134   0.087647055  -1.904277563
|233> H   1.196811134  -0.991871945  -1.775284563
|234> H   2.211989134   0.305260055  -2.475690563
|235> H   0.429609134   0.465238055  -2.438968563
|236> C   1.370814134   0.733824055  -0.596615563
|237> N   1.410703134   1.251088055   0.443715437
|238> C  -1.358770866  -0.132377945   1.926698437
|239> H  -0.462201866   0.484443055   2.043116437
|240> H  -1.358770866  -0.916298945   2.688526437
|241> H  -2.255339866   0.484442055   2.043116437
|242> C  -1.358770866  -0.730518945   0.594624437
|243> N  -1.358769866  -1.203422945  -0.467335563
|244> *
|245> 
|246> 
|247> $new_job
|248> 
|249> # 4mecn.malloum.etal.dset.2mecn.dset-orca.engrad-mp2.def2tzvp
|250> ! MP2 def2-TZVP EnGrad TightSCF FrozenCore
|251> 
|252> %pal
|253>     nprocs 12
|254> end
|255> 
|256> %maxcore 8000
|257> 
|258> %scf
|259>     ConvForced true
|260> end
|261> 
|262> *xyz 0 1
|263> C   1.306124293  -1.633731925  -1.176003089
|264> H   1.196811293  -2.713250925  -1.047010089
|265> H   2.211989293  -1.416118925  -1.747416089
|266> H   0.429609293  -1.256140925  -1.710694089
|267> C   1.370814293  -0.987554925   0.131658911
|268> N   1.410703293  -0.470290925   1.171989911
|269> C  -1.358770707   1.595293075   1.195504911
|270> H  -0.462166707   1.275580075   1.735081911
|271> H  -2.255372707   1.275578075   1.735082911
|272> H  -1.358771707   2.685033075   1.109975911
|273> C  -1.358770707   0.991098075  -0.133831089
|274> N  -1.358770707   0.510956075  -1.192247089
|275> *
|276> 
|277> 
|278> $new_job
|279> 
|280> # 4mecn.malloum.etal.dset.2mecn.dset-orca.engrad-mp2.def2tzvp
|281> ! MP2 def2-TZVP EnGrad TightSCF FrozenCore
|282> 
|283> %pal
|284>     nprocs 12
|285> end
|286> 
|287> %maxcore 8000
|288> 
|289> %scf
|290>     ConvForced true
|291> end
|292> 
|293> *xyz 0 1
|294> C  -1.306124280   0.087645202  -1.904276576
|295> H  -1.196794280  -0.991870798  -1.775283576
|296> H  -0.429620280   0.465249202  -2.438974576
|297> H  -2.211997280   0.305244202  -2.475682576
|298> C  -1.370814280   0.733823202  -0.596615576
|299> N  -1.410704280   1.251090202   0.443714424
|300> C   1.358770720  -0.132377798   1.926698424
|301> H   2.255339720   0.484443202   2.043116424
|302> H   1.358770720  -0.916298798   2.688526424
|303> H   0.462201720   0.484442202   2.043116424
|304> C   1.358770720  -0.730518798   0.594624424
|305> N   1.358771720  -1.203422798  -0.467335576
|306> *
|307> 
|308> 
|309> $new_job
|310> 
|311> # 4mecn.malloum.etal.dset.2mecn.dset-orca.engrad-mp2.def2tzvp
|312> ! MP2 def2-TZVP EnGrad TightSCF FrozenCore
|313> 
|314> %pal
|315>     nprocs 12
|316> end
|317> 
|318> %maxcore 8000
|319> 
|320> %scf
|321>     ConvForced true
|322> end
|323> 
|324> *xyz 0 1
|325> C  -1.306124122  -1.633733778  -1.176002101
|326> H  -1.196794122  -2.713249778  -1.047009101
|327> H  -0.429620122  -1.256129778  -1.710700101
|328> H  -2.211997122  -1.416134778  -1.747408101
|329> C  -1.370814122  -0.987555778   0.131658899
|330> N  -1.410704122  -0.470288778   1.171988899
|331> C   1.358770878   1.595293222   1.195504899
|332> H   2.255374878   1.275580222   1.735081899
|333> H   0.462168878   1.275578222   1.735082899
|334> H   1.358769878   2.685033222   1.109975899
|335> C   1.358770878   0.991098222  -0.133831101
|336> N   1.358770878   0.510956222  -1.192247101
|337> *
|338> 
|339> 
|340> $new_job
|341> 
|342> # 4mecn.malloum.etal.dset.2mecn.dset-orca.engrad-mp2.def2tzvp
|343> ! MP2 def2-TZVP EnGrad TightSCF FrozenCore
|344> 
|345> %pal
|346>     nprocs 12
|347> end
|348> 
|349> %maxcore 8000
|350> 
|351> %scf
|352>     ConvForced true
|353> end
|354> 
|355> *xyz 0 1
|356> C  -0.000000183  -1.191972033   1.910444712
|357> H   0.896568817  -0.575151033   2.026862712
|358> H  -0.000000183  -1.975893033   2.672272712
|359> H  -0.896569183  -0.575152033   2.026862712
|360> C  -0.000000183  -1.790113033   0.578370712
|361> N   0.000000817  -2.263017033  -0.483589288
|362> C  -0.000000183   2.257077967   0.450976712
|363> H   0.896603817   1.937364967   0.990553712
|364> H  -0.896602183   1.937362967   0.990554712
|365> H  -0.000001183   3.346817967   0.365447712
|366> C  -0.000000183   1.652882967  -0.878359288
|367> N  -0.000000183   1.172740967  -1.936775288
|368> *
|369> 
|370> 
|371> $new_job
|372> 
|373> # 4mecn.malloum.etal.dset.2mecn.dset-orca.engrad-mp2.def2tzvp
|374> ! MP2 def2-TZVP EnGrad TightSCF FrozenCore
|375> 
|376> %pal
|377>     nprocs 12
|378> end
|379> 
|380> %maxcore 8000
|381> 
|382> %scf
|383>     ConvForced true
|384> end
|385> 
|386> *xyz 0 1
|387> C  -2.661601426   0.002424595  -1.292846926
|388> H  -3.546118426   0.474790595  -1.727561926
|389> H  -2.602512426  -1.041529405  -1.610022926
|390> H  -1.759494426   0.521133595  -1.630463926
|391> C  -2.722996426   0.068572595   0.164403074
|392> N  -2.760666426   0.122552595   1.325047074
|393> C   2.661598574  -0.002449405  -1.292848926
|394> H   3.546102574  -0.474844405  -1.727557926
|395> H   2.602531574   1.041499595  -1.610044926
|396> H   1.759479574  -0.521144405  -1.630452926
|397> C   2.722996574  -0.068570405   0.164402074
|398> N   2.760669574  -0.122526405   1.325047074
|399> *
|400> 
|401> 
|402> $new_job
|403> 
|404> # 4mecn.malloum.etal.dset.2mecn.dset-orca.engrad-mp2.def2tzvp
|405> ! MP2 def2-TZVP EnGrad TightSCF FrozenCore
|406> 
|407> %pal
|408>     nprocs 12
|409> end
|410> 
|411> %maxcore 8000
|412> 
|413> %scf
|414>     ConvForced true
|415> end
|416> 
|417> *xyz 0 1
|418> C  -1.347794245  -0.963831849  -1.723364035
|419> H  -2.232311245  -0.491465849  -2.158079035
|420> H  -1.288705245  -2.007785849  -2.040540035
|421> H  -0.445687245  -0.445122849  -2.060981035
|422> C  -1.409189245  -0.897683849  -0.266114035
|423> N  -1.446859245  -0.843703849   0.894529965
|424> C   1.387060755   0.907711151   1.725724965
|425> H   2.243605755   0.331976151   2.090158965
|426> H   0.454824755   0.457315151   2.079782965
|427> H   1.457933755   1.932930151   2.098259965
|428> C   1.397058755   0.905488151   0.265574965
|429> N   1.409944755   0.901117151  -0.896711035
|430> *
|431> 
|432> 
|433> $new_job
|434> 
|435> # 4mecn.malloum.etal.dset.2mecn.dset-orca.engrad-mp2.def2tzvp
|436> ! MP2 def2-TZVP EnGrad TightSCF FrozenCore
|437> 
|438> %pal
|439>     nprocs 12
|440> end
|441> 
|442> %maxcore 8000
|443> 
|444> %scf
|445>     ConvForced true
|446> end
|447> 
|448> *xyz 0 1
|449> C  -1.263924731   0.907207771  -1.723378828
|450> H  -2.148441731   1.379573771  -2.158093828
|451> H  -1.204835731  -0.136746229  -2.040554828
|452> H  -0.361817731   1.425916771  -2.060995828
|453> C  -1.325319731   0.973355771  -0.266128828
|454> N  -1.362989731   1.027335771   0.894515172
|455> C   1.324424269  -0.969152229   1.725739172
|456> H   0.467882269  -0.393408229   2.090164172
|457> H   2.256663269  -0.518756229   2.079787172
|458> H   1.253546269  -1.994365229   2.098291172
|459> C   1.314423269  -0.966953229   0.265590172
|460> N   1.301534269  -0.962602229  -0.896695828
|461> *
|462> 
|463> 
|464> $new_job
|465> 
|466> # 4mecn.malloum.etal.dset.2mecn.dset-orca.engrad-mp2.def2tzvp
|467> ! MP2 def2-TZVP EnGrad TightSCF FrozenCore
|468> 
|469> %pal
|470>     nprocs 12
|471> end
|472> 
|473> %maxcore 8000
|474> 
|475> %scf
|476>     ConvForced true
|477> end
|478> 
|479> *xyz 0 1
|480> C   1.263922755  -0.907237842  -1.723365511
|481> H   2.148426755  -1.379632842  -2.158074511
|482> H   1.204855755   0.136711158  -2.040561511
|483> H   0.361803755  -1.425932842  -2.060969511
|484> C   1.325320755  -0.973358842  -0.266114511
|485> N   1.362993755  -1.027314842   0.894530489
|486> C  -1.324422245   0.969179158   1.725725489
|487> H  -0.467877245   0.393444158   2.090159489
|488> H  -2.256658245   0.518783158   2.079783489
|489> H  -1.253549245   1.994398158   2.098260489
|490> C  -1.314424245   0.966956158   0.265575489
|491> N  -1.301538245   0.962585158  -0.896710511
|492> *
|493> 
|494> 
|495> $new_job
|496> 
|497> # 4mecn.malloum.etal.dset.2mecn.dset-orca.engrad-mp2.def2tzvp
|498> ! MP2 def2-TZVP EnGrad TightSCF FrozenCore
|499> 
|500> %pal
|501>     nprocs 12
|502> end
|503> 
|504> %maxcore 8000
|505> 
|506> %scf
|507>     ConvForced true
|508> end
|509> 
|510> *xyz 0 1
|511> C   1.347792269   0.963801778  -1.723380303
|512> H   2.232296269   0.491406778  -2.158089303
|513> H   1.288725269   2.007750778  -2.040576303
|514> H   0.445673269   0.445106778  -2.060984303
|515> C   1.409190269   0.897680778  -0.266129303
|516> N   1.446863269   0.843724778   0.894515697
|517> C  -1.387058731  -0.907684222   1.725739697
|518> H  -2.243600731  -0.331940222   2.090164697
|519> H  -0.454819731  -0.457288222   2.079787697
|520> H  -1.457936731  -1.932897222   2.098291697
|521> C  -1.397059731  -0.905485222   0.265590697
|522> N  -1.409948731  -0.901134222  -0.896695303
|523> *
|524> 
|525> 
|526> $new_job
|527> 
|528> # 4mecn.malloum.etal.dset.2mecn.dset-orca.engrad-mp2.def2tzvp
|529> ! MP2 def2-TZVP EnGrad TightSCF FrozenCore
|530> 
|531> %pal
|532>     nprocs 12
|533> end
|534> 
|535> %maxcore 8000
|536> 
|537> %scf
|538>     ConvForced true
|539> end
|540> 
|541> *xyz 0 1
|542> C   0.073254450   1.873962333   1.295193587
|543> H   0.929799450   1.298227333   1.659627587
|544> H  -0.858981550   1.423566333   1.649251587
|545> H   0.144127450   2.899181333   1.667728587
|546> C   0.083252450   1.871739333  -0.164956413
|547> N   0.096138450   1.867368333  -1.327242413
|548> C  -0.073251550  -1.873940667   1.295222587
|549> H  -0.929793550  -1.298196667   1.659647587
|550> H   0.858987450  -1.423544667   1.649270587
|551> H  -0.144129550  -2.899153667   1.667774587
|552> C  -0.083252550  -1.871741667  -0.164926413
|553> N  -0.096141550  -1.867390667  -1.327212413
|554> *
|555> 
|556> 
|557> $new_job
|558> 
|559> # 4mecn.malloum.etal.dset.2mecn.dset-orca.engrad-mp2.def2tzvp
|560> ! MP2 def2-TZVP EnGrad TightSCF FrozenCore
|561> 
|562> %pal
|563>     nprocs 12
|564> end
|565> 
|566> %maxcore 8000
|567> 
|568> %scf
|569>     ConvForced true
|570> end
|571> 
|572> *xyz 0 1
|573> C   1.770495644  -1.605303140   0.105485673
|574> H   2.119978644  -2.107582140   1.011084673
|575> H   2.486439644  -1.785324140  -0.700454327
|576> H   0.794388644  -2.008666140  -0.179349327
|577> C   1.640073644  -0.170658140   0.347807673
|578> N   1.524857644   0.969624860   0.537550673
|579> C  -1.753631356   1.617143860  -0.179751327
|580> H  -1.835137356   2.091340860  -1.161224327
|581> H  -0.861307356   1.994835860   0.327211673
|582> H  -2.650801356   1.843414860   0.403039673
|583> C  -1.638084356   0.170743860  -0.339178327
|584> N  -1.544877356  -0.981867140  -0.459707327
|585> *
|586> 
|587> 
|588> $new_job
|589> 
|590> # 4mecn.malloum.etal.dset.2mecn.dset-orca.engrad-mp2.def2tzvp
|591> ! MP2 def2-TZVP EnGrad TightSCF FrozenCore
|592> 
|593> %pal
|594>     nprocs 12
|595> end
|596> 
|597> %maxcore 8000
|598> 
|599> %scf
|600>     ConvForced true
|601> end
|602> 
|603> *xyz 0 1
|604> C   3.314536663  -1.005950258  -0.363441996
|605> H   3.664019663  -1.508229258   0.542157004
|606> H   4.030480663  -1.185971258  -1.169381996
|607> H   2.338429663  -1.409313258  -0.648276996
|608> C   3.184114663   0.428694742  -0.121119996
|609> N   3.068898663   1.568977742   0.068623004
|610> C  -3.091842337  -1.549226258   0.010162004
|611> H  -3.010342337  -2.023421258   0.991637004
|612> H  -2.194667337  -1.775498258  -0.572621996
|613> H  -3.984162337  -1.926920258  -0.496805996
|614> C  -3.207391337  -0.102826258   0.169586004
|615> N  -3.300599337   1.049784742   0.290112004
|616> *
|617> 
|618> 
|619> $new_job
|620> 
|621> # 4mecn.malloum.etal.dset.2mecn.dset-orca.engrad-mp2.def2tzvp
|622> ! MP2 def2-TZVP EnGrad TightSCF FrozenCore
|623> 
|624> %pal
|625>     nprocs 12
|626> end
|627> 
|628> %maxcore 8000
|629> 
|630> %scf
|631>     ConvForced true
|632> end
|633> 
|634> *xyz 0 1
|635> C   4.965254099  -1.339582671  -0.044181646
|636> H   5.314737099  -1.841861671   0.861417354
|637> H   5.681198099  -1.519603671  -0.850121646
|638> H   3.989147099  -1.742945671  -0.329016646
|639> C   4.834832099   0.095062329   0.198140354
|640> N   4.719616099   1.235345329   0.387883354
|641> C  -4.965258901   1.339582329   0.044180354
|642> H  -5.314743901   1.841859329  -0.861418646
|643> H  -3.989152901   1.742949329   0.329016354
|644> H  -5.681202901   1.519601329   0.850120354
|645> C  -4.834831901  -0.095062671  -0.198139646
|646> N  -4.719610901  -1.235344671  -0.387882646
|647> *
|648> 
|649> 
|650> $new_job
|651> 
|652> # 4mecn.malloum.etal.dset.2mecn.dset-orca.engrad-mp2.def2tzvp
|653> ! MP2 def2-TZVP EnGrad TightSCF FrozenCore
|654> 
|655> %pal
|656>     nprocs 12
|657> end
|658> 
|659> %maxcore 8000
|660> 
|661> %scf
|662>     ConvForced true
|663> end
|664> 
|665> *xyz 0 1
|666> C   1.441126768   1.882861512  -0.329419087
|667> H   1.359620768   2.357058512  -1.310892087
|668> H   2.333450768   2.260553512   0.177543913
|669> H   0.543956768   2.109132512   0.253371913
|670> C   1.556673768   0.436461512  -0.488846087
|671> N   1.649880768  -0.716149488  -0.609375087
|672> C  -1.441125232  -1.882861488   0.329421913
|673> H  -1.359625232  -2.357056488   1.310896913
|674> H  -0.543950232  -2.109133488  -0.253362087
|675> H  -2.333445232  -2.260555488  -0.177546087
|676> C  -1.556674232  -0.436461488   0.488845913
|677> N  -1.649882232   0.716149512   0.609371913
|678> *
|679> 
|680> 
|681> $new_job
|682> 
|683> # 4mecn.malloum.etal.dset.2mecn.dset-orca.engrad-mp2.def2tzvp
|684> ! MP2 def2-TZVP EnGrad TightSCF FrozenCore
|685> 
|686> %pal
|687>     nprocs 12
|688> end
|689> 
|690> %maxcore 8000
|691> 
|692> %scf
|693>     ConvForced true
|694> end
|695> 
|696> *xyz 0 1
|697> C   3.091844204   1.549229100  -0.010158737
|698> H   3.010338204   2.023426100  -0.991631737
|699> H   3.984168204   1.926921100   0.496804263
|700> H   2.194674204   1.775500100   0.572632263
|701> C   3.207391204   0.102829100  -0.169585737
|702> N   3.300598204  -1.049781900  -0.290114737
|703> C  -3.314541796   1.005947100   0.363440263
|704> H  -3.664026796   1.508224100  -0.542158737
|705> H  -2.338435796   1.409314100   0.648276263
|706> H  -4.030485796   1.185966100   1.169380263
|707> C  -3.184114796  -0.428697900   0.121120263
|708> N  -3.068893796  -1.568979900  -0.068622737
|709> *
|710> 
|711> 
|712> $new_job
|713> 
|714> # 4mecn.malloum.etal.dset.2mecn.dset-orca.engrad-mp2.def2tzvp
|715> ! MP2 def2-TZVP EnGrad TightSCF FrozenCore
|716> 
|717> %pal
|718>     nprocs 12
|719> end
|720> 
|721> %maxcore 8000
|722> 
|723> %scf
|724>     ConvForced true
|725> end
|726> 
|727> *xyz 0 1
|728> C   1.753633223  -1.617141019   0.179754595
|729> H   1.835133223  -2.091336019   1.161229595
|730> H   2.650808223  -1.843413019  -0.403029405
|731> H   0.861313223  -1.994835019  -0.327213405
|732> C   1.638084223  -0.170741019   0.339178595
|733> N   1.544876223   0.981869981   0.459704595
|734> C  -1.770500777   1.605299981  -0.105487405
|735> H  -2.119985777   2.107576981  -1.011086405
|736> H  -0.794394777   2.008666981   0.179348595
|737> H  -2.486444777   1.785318981   0.700452595
|738> C  -1.640073777   0.170654981  -0.347807405
|739> N  -1.524852777  -0.969627019  -0.537550405
|740> *
|741> 
|742> 
|743> $new_job
|744> 
|745> # 4mecn.malloum.etal.dset.2mecn.dset-orca.engrad-mp2.def2tzvp
|746> ! MP2 def2-TZVP EnGrad TightSCF FrozenCore
|747> 
|748> %pal
|749>     nprocs 12
|750> end
|751> 
|752> %maxcore 8000
|753> 
|754> %scf
|755>     ConvForced true
|756> end
|757> 
|758> *xyz 0 1
|759> C  -0.765345312  -1.497441381  -1.711838687
|760> H  -1.769266312  -1.535039381  -2.142391687
|761> H  -0.209025312  -2.382594381  -2.030659687
|762> H  -0.251337312  -0.599202381  -2.065949687
|763> C  -0.846869312  -1.455919381  -0.253823687
|764> N  -0.906940312  -1.414788381   0.905354313
|765> C   0.837116688   1.459199619   1.714747313
|766> H   1.870661688   1.419889619   2.070513313
|767> H   0.286059688   0.584708619   2.072578313
|768> H   0.354852688   2.374258619   2.070474313
|769> C   0.835930688   1.457492619   0.256054313
|770> N   0.834492688   1.456157619  -0.907930687
|771> *
|772> 
|773> 
|774> $new_job
|775> 
|776> # 4mecn.malloum.etal.dset.2mecn.dset-orca.engrad-mp2.def2tzvp
|777> ! MP2 def2-TZVP EnGrad TightSCF FrozenCore
|778> 
|779> %pal
|780>     nprocs 12
|781> end
|782> 
|783> %maxcore 8000
|784> 
|785> %scf
|786>     ConvForced true
|787> end
|788> 
|789> *xyz 0 1
|790> C   0.107059671  -2.932614774  -1.290678448
|791> H  -0.896861329  -2.970212774  -1.721231448
|792> H   0.663379671  -3.817767774  -1.609499448
|793> H   0.621067671  -2.034375774  -1.644789448
|794> C   0.025535671  -2.891092774   0.167336552
|795> N  -0.034535329  -2.849961774   1.326514552
|796> C  -0.114657329   2.841936226  -1.293471448
|797> H  -1.160411329   2.774887226  -1.604199448
|798> H   0.425738671   1.958714226  -1.646084448
|799> H   0.329363671   3.738848226  -1.732827448
|800> C  -0.028531329   2.902689226   0.163604552
|801> N   0.044893671   2.942947226   1.322043552
|802> *
|803> 
|804> 
|805> $new_job
|806> 
|807> # 4mecn.malloum.etal.dset.2mecn.dset-orca.engrad-mp2.def2tzvp
|808> ! MP2 def2-TZVP EnGrad TightSCF FrozenCore
|809> 
|810> %pal
|811>     nprocs 12
|812> end
|813> 
|814> %maxcore 8000
|815> 
|816> %scf
|817>     ConvForced true
|818> end
|819> 
|820> *xyz 0 1
|821> C  -2.444746125  -1.517294128  -1.287307251
|822> H  -3.448667125  -1.554892128  -1.717860251
|823> H  -1.888426125  -2.402447128  -1.606128251
|824> H  -1.930738125  -0.619055128  -1.641418251
|825> C  -2.526270125  -1.475772128   0.170707749
|826> N  -2.586341125  -1.434641128   1.329885749
|827> C   2.511257875   1.560856872  -1.297509251
|828> H   3.055238875   0.717513872  -1.730514251
|829> H   2.987928875   2.491639872  -1.615414251
|830> H   1.475954875   1.545038872  -1.649981251
|831> C   2.519562875   1.466907872   0.160317749
|832> N   2.516980875   1.392095872   1.319364749
|833> *
|834> 
|835> 
|836> $new_job
|837> 
|838> # 4mecn.malloum.etal.dset.2mecn.dset-orca.engrad-mp2.def2tzvp
|839> ! MP2 def2-TZVP EnGrad TightSCF FrozenCore
|840> 
|841> %pal
|842>     nprocs 12
|843> end
|844> 
|845> %maxcore 8000
|846> 
|847> %scf
|848>     ConvForced true
|849> end
|850> 
|851> *xyz 0 1
|852> C   0.873641806  -1.433666904   1.716557775
|853> H   1.907186806  -1.472976904   2.072323775
|854> H   0.322584806  -2.308157904   2.074388775
|855> H   0.391377806  -0.518607904   2.072284775
|856> C   0.872455806  -1.435373904   0.257864775
|857> N   0.871017806  -1.436708904  -0.906120225
|858> C  -0.950537194   1.384243096  -1.712821225
|859> H  -1.996291194   1.317194096  -2.023549225
|860> H  -0.410141194   0.501021096  -2.065434225
|861> H  -0.506516194   2.281155096  -2.152177225
|862> C  -0.864411194   1.444996096  -0.255745225
|863> N  -0.790986194   1.485254096   0.902693775
|864> *
|865> 
|866> 
|867> $new_job
|868> 
|869> # 4mecn.malloum.etal.dset.2mecn.dset-orca.engrad-mp2.def2tzvp
|870> ! MP2 def2-TZVP EnGrad TightSCF FrozenCore
|871> 
|872> %pal
|873>     nprocs 12
|874> end
|875> 
|876> %maxcore 8000
|877> 
|878> %scf
|879>     ConvForced true
|880> end
|881> 
|882> *xyz 0 1
|883> C  -1.678163991  -0.018346258   1.719928973
|884> H  -0.644618991  -0.057656258   2.075694973
|885> H  -2.229220991  -0.892837258   2.077759973
|886> H  -2.160427991   0.896712742   2.075655973
|887> C  -1.679349991  -0.020053258   0.261235973
|888> N  -1.680787991  -0.021388258  -0.902749027
|889> C   1.675378009   0.103163742  -1.716859027
|890> H   2.219359009  -0.740179258  -2.149864027
|891> H   2.152049009   1.033946742  -2.034764027
|892> H   0.640075009   0.087345742  -2.069331027
|893> C   1.683683009   0.009214742  -0.259032027
|894> N   1.681101009  -0.065597258   0.900014973
|895> *
|896> 
|897> 
|898> $new_job
|899> 
|900> # 4mecn.malloum.etal.dset.2mecn.dset-orca.engrad-mp2.def2tzvp
|901> ! MP2 def2-TZVP EnGrad TightSCF FrozenCore
|902> 
|903> %pal
|904>     nprocs 12
|905> end
|906> 
|907> %maxcore 8000
|908> 
|909> %scf
|910>     ConvForced true
|911> end
|912> 
|913> *xyz 0 1
|914> C  -2.629938007   1.364390349  -1.288289788
|915> H  -3.675692007   1.297341349  -1.599017788
|916> H  -2.089542007   0.481168349  -1.640902788
|917> H  -2.185917007   2.261302349  -1.727645788
|918> C  -2.543812007   1.425143349   0.168786212
|919> N  -2.470387007   1.465401349   1.327225212
|920> C   2.547782993  -1.332009651  -1.295698788
|921> H   3.091763993  -2.175352651  -1.728703788
|922> H   3.024453993  -0.401226651  -1.613603788
|923> H   1.512479993  -1.347827651  -1.648170788
|924> C   2.556087993  -1.425958651   0.162128212
|925> N   2.553505993  -1.500770651   1.321175212
|926> *
|927> 
|928> 
|929> $new_job
|930> 
|931> # 4mecn.malloum.etal.dset.2mecn.dset-orca.engrad-mp2.def2tzvp
|932> ! MP2 def2-TZVP EnGrad TightSCF FrozenCore
|933> 
|934> %pal
|935>     nprocs 12
|936> end
|937> 
|938> %maxcore 8000
|939> 
|940> %scf
|941>     ConvForced true
|942> end
|943> 
|944> *xyz 0 1
|945> C  -2.294545311  -0.117133102   0.005404369
|946> H  -2.841671311   0.211911898  -0.881926631
|947> H  -1.300055311   0.340214898   0.002518369
|948> H  -2.835860311   0.210539898   0.896799369
|949> C  -2.180533311  -1.572902102   0.003916369
|950> N  -2.090473311  -2.730730102   0.002783369
|951> C   3.484205689   1.508192898  -0.005566631
|952> H   3.941581689   0.513716898  -0.002597631
|953> H   3.813340689   2.055450898   0.881650369
|954> H   3.811762689   2.049391898  -0.897074631
|955> C   2.028440689   1.394145898  -0.003895631
|956> N   0.870615689   1.304049898  -0.002616631
|957> *
|958> 
|959> 
|960> $new_job
|961> 
|962> # 4mecn.malloum.etal.dset.2mecn.dset-orca.engrad-mp2.def2tzvp
|963> ! MP2 def2-TZVP EnGrad TightSCF FrozenCore
|964> 
|965> %pal
|966>     nprocs 12
|967> end
|968> 
|969> %maxcore 8000
|970> 
|971> %scf
|972>     ConvForced true
|973> end
|974> 
|975> *xyz 0 1
|976> C  -3.702070132   2.076679099   0.001284564
|977> H  -4.249196132   2.405724099  -0.886046436
|978> H  -2.707580132   2.534027099  -0.001601436
|979> H  -4.243385132   2.404352099   0.892679564
|980> C  -3.588058132   0.620910099  -0.000203436
|981> N  -3.497998132  -0.536917901  -0.001336436
|982> C   3.702033868  -2.076681901   0.001430564
|983> H   4.249282868  -2.405810901  -0.885793436
|984> H   2.707533868  -2.534005901  -0.001562436
|985> H   4.243207868  -2.404299901   0.892931564
|986> C   3.588061868  -0.620909901  -0.000185436
|987> N   3.498035868   0.536921099  -0.001421436
|988> *
|989> 
|990> 
|991> $new_job
|992> 
|993> # 4mecn.malloum.etal.dset.2mecn.dset-orca.engrad-mp2.def2tzvp
|994> ! MP2 def2-TZVP EnGrad TightSCF FrozenCore
|995> 
|996> %pal
|997>     nprocs 12
|998> end
|999> 
|1000> %maxcore 8000
|1001> 
|1002> %scf
|1003>     ConvForced true
|1004> end
|1005> 
|1006> *xyz 0 1
|1007> C  -1.508205229   3.484177575   0.005392421
|1008> H  -2.055331229   3.813222575  -0.881938579
|1009> H  -0.513715229   3.941525575   0.002506421
|1010> H  -2.049520229   3.811850575   0.896787421
|1011> C  -1.394193229   2.028408575   0.003904421
|1012> N  -1.304133229   0.870580575   0.002771421
|1013> C   0.117180771  -2.294534425  -0.005283579
|1014> H  -0.340186229  -1.300054425  -0.002407579
|1015> H  -0.211784229  -2.841625425   0.882098421
|1016> H  -0.210553229  -2.835895425  -0.896627579
|1017> C   1.572947771  -2.180498425  -0.003917579
|1018> N   2.730774771  -2.090420425  -0.002883579
|1019> *
|1020> 
|1021> 
|1022> $new_job
|1023> 
|1024> # 4mecn.malloum.etal.dset.2mecn.dset-orca.engrad-mp2.def2tzvp
|1025> ! MP2 def2-TZVP EnGrad TightSCF FrozenCore
|1026> 
|1027> %pal
|1028>     nprocs 12
|1029> end
|1030> 
|1031> %maxcore 8000
|1032> 
|1033> %scf
|1034>     ConvForced true
|1035> end
|1036> 
|1037> *xyz 0 1
|1038> C  -0.117183403   2.294526971  -0.005582798
|1039> H   0.340192597   1.300050971  -0.002613798
|1040> H   0.211951597   2.841784971   0.881634202
|1041> H   0.210373597   2.835725971  -0.897090798
|1042> C  -1.572948403   2.180479971  -0.003911798
|1043> N  -2.730773403   2.090383971  -0.002632798
|1044> C   1.508169597  -3.484160029   0.005534202
|1045> H   2.055418597  -3.813289029  -0.881689798
|1046> H   0.513669597  -3.941484029   0.002541202
|1047> H   2.049343597  -3.811778029   0.897035202
|1048> C   1.394197597  -2.028388029   0.003918202
|1049> N   1.304171597  -0.870557029   0.002682202
|1050> *
|1051> 
|1052> 
|1053> $new_job
|1054> 
|1055> # 4mecn.malloum.etal.dset.2mecn.dset-orca.engrad-mp2.def2tzvp
|1056> ! MP2 def2-TZVP EnGrad TightSCF FrozenCore
|1057> 
|1058> %pal
|1059>     nprocs 12
|1060> end
|1061> 
|1062> %maxcore 8000
|1063> 
|1064> %scf
|1065>     ConvForced true
|1066> end
|1067> 
|1068> *xyz 0 1
|1069> C   2.076681500   3.702025446  -0.001474941
|1070> H   2.534057500   2.707549446   0.001494059
|1071> H   2.405816500   4.249283446   0.885742059
|1072> H   2.404238500   4.243224446  -0.892982941
|1073> C   0.620916500   3.587978446   0.000196059
|1074> N  -0.536908500   3.497882446   0.001475059
|1075> C  -2.076683500  -3.702012554  -0.001179941
|1076> H  -2.534050500  -2.707532554   0.001696059
|1077> H  -2.405648500  -4.249103554   0.886202059
|1078> H  -2.404417500  -4.243373554  -0.892523941
|1079> C  -0.620916500  -3.587976554   0.000186059
|1080> N   0.536910500  -3.497898554   0.001220059
|1081> *
|1082> 
|1083> 
|1084> $new_job
|1085> 
|1086> # 4mecn.malloum.etal.dset.2mecn.dset-orca.engrad-mp2.def2tzvp
|1087> ! MP2 def2-TZVP EnGrad TightSCF FrozenCore
|1088> 
|1089> %pal
|1090>     nprocs 12
|1091> end
|1092> 
|1093> %maxcore 8000
|1094> 
|1095> %scf
|1096>     ConvForced true
|1097> end
|1098> 
|1099> *xyz 0 1
|1100> C   2.294509679   0.117150647   0.005522254
|1101> H   2.841758679  -0.211978353  -0.881701746
|1102> H   1.300009679  -0.340173353   0.002529254
|1103> H   2.835683679  -0.210467353   0.897023254
|1104> C   2.180537679   1.572922647   0.003906254
|1105> N   2.090511679   2.730753647   0.002670254
|1106> C  -3.484208321  -1.508200353  -0.005299746
|1107> H  -3.941575321  -0.513720353  -0.002423746
|1108> H  -3.813173321  -2.055291353   0.882082254
|1109> H  -3.811942321  -2.049561353  -0.896643746
|1110> C  -2.028441321  -1.394164353  -0.003933746
|1111> N  -0.870614321  -1.304086353  -0.002899746
|1112> *
|1113> 
|1114>                          ****END OF INPUT****
================================================================================


                 $$$$$$$$$$$$$$$$$$$$$$$$$$$$$$$$$$$$$$$$$$$$$$ 
                 $ THERE ARE 36 JOBS TO BE PROCESSED THIS RUN $
                 $$$$$$$$$$$$$$$$$$$$$$$$$$$$$$$$$$$$$$$$$$$$$$ 




                 $$$$$$$$$$$$$$$$  JOB NUMBER  1 $$$$$$$$$$$$$$


                     *******************************
                     * Energy+Gradient Calculation *
                     *******************************

---------------------------------
CARTESIAN COORDINATES (ANGSTROEM)
---------------------------------
  C     -1.726328   -2.380429    0.392771
  H     -1.685320   -2.288274    1.482074
  H     -0.924209   -3.047669    0.069245
  H     -2.696186   -2.784865    0.091715
  C     -1.531908   -1.059755   -0.198737
  N     -1.392985   -0.005859   -0.668985
  C      1.726329    0.683935   -1.041408
  H      0.924209    1.007458   -1.708648
  H      1.685325   -0.405369   -0.949252
  H      2.696186    0.984993   -1.445844
  C      1.531908    1.275443    0.279265
  N      1.392982    1.745691    1.333161

----------------------------
CARTESIAN COORDINATES (A.U.)
----------------------------
  NO LB      ZA    FRAG     MASS         X           Y           Z
   0 C     6.0000    0    12.011   -3.262287   -4.498359    0.742230
   1 H     1.0000    0     1.008   -3.184793   -4.324211    2.800715
   2 H     1.0000    0     1.008   -1.746501   -5.759260    0.130855
   3 H     1.0000    0     1.008   -5.095053   -5.262632    0.173317
   4 C     6.0000    0    12.011   -2.894886   -2.002647   -0.375558
   5 N     7.0000    0    14.007   -2.632360   -0.011072   -1.264198
   6 C     6.0000    0    12.011    3.262290    1.292450   -1.967975
   7 H     1.0000    0     1.008    1.746502    1.903820   -3.228876
   8 H     1.0000    0     1.008    3.184803   -0.766036   -1.793826
   9 H     1.0000    0     1.008    5.095054    1.861367   -2.732249
  10 C     6.0000    0    12.011    2.894887    2.410238    0.527735
  11 N     7.0000    0    14.007    2.632355    3.298878    2.519310

--------------------------------
INTERNAL COORDINATES (ANGSTROEM)
--------------------------------
 C      0   0   0     0.000000000000     0.00000000     0.00000000
 H      1   0   0     1.093963082511     0.00000000     0.00000000
 H      1   2   0     1.092370441030   108.59259146     0.00000000
 H      1   2   3     1.093081759703   109.79613753   120.44813632
 C      1   2   3     1.460089266018   108.79629385   240.81986660
 N      5   1   2     1.162380987563   179.20811918   270.87083246
 C      6   5   1     3.216307585409   110.92879470   175.35002040
 H      7   6   5     1.092370286821    54.69680103   146.31883427
 H      7   6   5     1.093964012556    74.95010131    19.80905092
 H      7   6   5     1.093081423275   164.24323602   129.59509960
 C      7   6   5     1.460088494658    81.54732340   267.64434627
 N     11   7   6     1.162381346115   179.20822020   159.98694881

---------------------------
INTERNAL COORDINATES (A.U.)
---------------------------
 C      0   0   0     0.000000000000     0.00000000     0.00000000
 H      1   0   0     2.067290626567     0.00000000     0.00000000
 H      1   2   0     2.064280970338   108.59259146     0.00000000
 H      1   2   3     2.065625167824   109.79613753   120.44813632
 C      1   2   3     2.759168843851   108.79629385   240.81986660
 N      5   1   2     2.196581729772   179.20811918   270.87083246
 C      6   5   1     6.077940498877   110.92879470   175.35002040
 H      7   6   5     2.064280678924    54.69680103   146.31883427
 H      7   6   5     2.067292384097    74.95010131    19.80905092
 H      7   6   5     2.065624532067   164.24323602   129.59509960
 C      7   6   5     2.759167386194    81.54732340   267.64434627
 N     11   7   6     2.196582407336   179.20822020   159.98694881

---------------------
BASIS SET INFORMATION
---------------------
There are 3 groups of distinct atoms

 Group   1 Type C   : 11s6p2d1f contracted to 5s3p2d1f pattern {62111/411/11/1}
 Group   2 Type H   : 5s1p contracted to 3s1p pattern {311/1}
 Group   3 Type N   : 11s6p2d1f contracted to 5s3p2d1f pattern {62111/411/11/1}

Atom   0C    basis set group =>   1
Atom   1H    basis set group =>   2
Atom   2H    basis set group =>   2
Atom   3H    basis set group =>   2
Atom   4C    basis set group =>   1
Atom   5N    basis set group =>   3
Atom   6C    basis set group =>   1
Atom   7H    basis set group =>   2
Atom   8H    basis set group =>   2
Atom   9H    basis set group =>   2
Atom  10C    basis set group =>   1
Atom  11N    basis set group =>   3


           ************************************************************
           *        Program running with 12 parallel MPI-processes    *
           *              working on a common directory               *
           ************************************************************
------------------------------------------------------------------------------
                           ORCA GTO INTEGRAL CALCULATION
------------------------------------------------------------------------------

                         BASIS SET STATISTICS AND STARTUP INFO

 # of primitive gaussian shells          ...  156
 # of primitive gaussian functions       ...  324
 # of contracted shells                  ...   90
 # of contracted basis functions         ...  222
 Highest angular momentum                ...    3
 Maximum contraction depth               ...    6
 Integral package used                   ... LIBINT
 Integral threshhold            Thresh   ...  2.500e-11
 Primitive cut-off              TCut     ...  2.500e-12


------------------------------ INTEGRAL EVALUATION ----------------------------


 * One electron integrals 
 Pre-screening matrix                    ... done
 Shell pair data                         ... done (   0.001 sec)



           ************************************************************
           *        Program running with 12 parallel MPI-processes    *
           *              working on a common directory               *
           ************************************************************
-------------------------------------------------------------------------------
                                 ORCA SCF
-------------------------------------------------------------------------------

------------
SCF SETTINGS
------------
Hamiltonian:
 Ab initio Hamiltonian  Method          .... Hartree-Fock(GTOs)


General Settings:
 Integral files         IntName         .... 4mecn.malloum.etal.dset.2mecn.dset-orca.engrad-mp2.def2tzvp
 Hartree-Fock type      HFTyp           .... RHF
 Total Charge           Charge          ....    0
 Multiplicity           Mult            ....    1
 Number of Electrons    NEL             ....   44
 Basis Dimension        Dim             ....  222
 Nuclear Repulsion      ENuc            ....    178.5078079047 Eh

Convergence Acceleration:
 DIIS                   CNVDIIS         .... on
   Start iteration      DIISMaxIt       ....    12
   Startup error        DIISStart       ....  0.200000
   # of expansion vecs  DIISMaxEq       ....     5
   Bias factor          DIISBfac        ....   1.050
   Max. coefficient     DIISMaxC        ....  10.000
 Newton-Raphson         CNVNR           .... off
 SOSCF                  CNVSOSCF        .... on
   Start iteration      SOSCFMaxIt      ....   150
   Startup grad/error   SOSCFStart      ....  0.003300
 Level Shifting         CNVShift        .... on
   Level shift para.    LevelShift      ....    0.2500
   Turn off err/grad.   ShiftErr        ....    0.0010
 Zerner damping         CNVZerner       .... off
 Static damping         CNVDamp         .... on
   Fraction old density DampFac         ....    0.7000
   Max. Damping (<1)    DampMax         ....    0.9800
   Min. Damping (>=0)   DampMin         ....    0.0000
   Turn off err/grad.   DampErr         ....    0.1000
 Fernandez-Rico         CNVRico         .... off

SCF Procedure:
 Maximum # iterations   MaxIter         ....   125
 SCF integral mode      SCFMode         .... Direct
   Integral package                     .... LIBINT
 Reset frequency        DirectResetFreq ....    20
 Integral Threshold     Thresh          ....  2.500e-11 Eh
 Primitive CutOff       TCut            ....  2.500e-12 Eh

Convergence Tolerance:
 Convergence Check Mode ConvCheckMode   .... Total+1el-Energy
 Convergence forced     ConvForced      .... 1
 Energy Change          TolE            ....  1.000e-08 Eh
 1-El. energy change                    ....  1.000e-05 Eh
 Orbital Gradient       TolG            ....  1.000e-05
 Orbital Rotation angle TolX            ....  1.000e-05
 DIIS Error             TolErr          ....  5.000e-07


Diagonalization of the overlap matrix:
Smallest eigenvalue                        ... 1.653e-04
Time for diagonalization                   ...    0.005 sec
Threshold for overlap eigenvalues          ... 1.000e-08
Number of eigenvalues below threshold      ... 0
Time for construction of square roots      ...    0.003 sec
Total time needed                          ...    0.009 sec

-------------------
DFT GRID GENERATION
-------------------

General Integration Accuracy     IntAcc      ...  4.340
Radial Grid Type                 RadialGrid  ... Gauss-Chebyshev
Angular Grid (max. acc.)         AngularGrid ... Lebedev-110
Angular grid pruning method      GridPruning ... 3 (G Style)
Weight generation scheme         WeightScheme... Becke
Basis function cutoff            BFCut       ...    1.0000e-11
Integration weight cutoff        WCut        ...    1.0000e-14
Grids for H and He will be reduced by one unit

# of grid points (after initial pruning)     ...  14792 (   0.0 sec)
# of grid points (after weights+screening)   ...  14123 (   0.0 sec)
nearest neighbour list constructed           ...    0.0 sec
Grid point re-assignment to atoms done       ...    0.0 sec
Grid point division into batches done        ...    0.0 sec
Reduced shell lists constructed in    0.0 sec

Total number of grid points                  ...    14123
Total number of batches                      ...      229
Average number of points per batch           ...       61
Average number of grid points per atom       ...     1177
Average number of shells per batch           ...    51.86 (57.62%)
Average number of basis functions per batch  ...   124.24 (55.96%)
Average number of large shells per batch     ...    39.62 (76.40%)
Average number of large basis fcns per batch ...    92.95 (74.82%)
Maximum spatial batch extension              ...  17.62, 14.91, 18.71 au
Average spatial batch extension              ...   0.36,  0.34,  0.49 au

Time for grid setup =    0.028 sec

------------------------------
INITIAL GUESS: MODEL POTENTIAL
------------------------------
Loading Hartree-Fock densities                     ... done
Calculating cut-offs                               ... done
Setting up the integral package                    ... done
Initializing the effective Hamiltonian             ... done
Starting the Coulomb interaction                   ... done (   0.0 sec)
Reading the grid                                   ... done
Mapping shells                                     ... done
Starting the XC term evaluation                    ... done (   0.0 sec)
Transforming the Hamiltonian                       ... done (   0.0 sec)
Diagonalizing the Hamiltonian                      ... done (   0.0 sec)
Back transforming the eigenvectors                 ... done (   0.0 sec)
Now organizing SCF variables                       ... done
                      ------------------
                      INITIAL GUESS DONE (   0.1 sec)
                      ------------------
--------------
SCF ITERATIONS
--------------
ITER       Energy         Delta-E        Max-DP      RMS-DP      [F,P]     Damp
               ***  Starting incremental Fock matrix formation  ***
  0   -263.6230254870   0.000000000000 0.03731925  0.00104304  0.2745787 0.7000
  1   -263.7409179602  -0.117892473108 0.02666531  0.00082487  0.1877642 0.7000
                               ***Turning on DIIS***
  2   -263.8097518986  -0.068833938498 0.01587674  0.00054191  0.1419401 0.7000
  3   -264.4460655354  -0.636313636702 0.00965565  0.00034964  0.1054814 0.7000
  4   -264.4125094132   0.033556122196 0.02452925  0.00085069  0.0743826 0.0000
  5   -263.9711928747   0.441316538483 0.00590783  0.00014438  0.0058901 0.0000
                      *** Initiating the SOSCF procedure ***
                           *** Shutting down DIIS ***
                      *** Re-Reading the Fockian *** 
                      *** Removing any level shift *** 
ITER      Energy       Delta-E        Grad      Rot      Max-DP    RMS-DP
  6   -263.95776976   0.0134231121  0.001177  0.001177  0.004239  0.000089
               *** Restarting incremental Fock matrix formation ***
  7   -263.95150045   0.0062693140  0.000389  0.000543  0.002769  0.000063
  8   -263.95151287  -0.0000124260  0.000313  0.000488  0.002463  0.000052
  9   -263.95151557  -0.0000026993  0.000113  0.000142  0.000710  0.000015
 10   -263.95151602  -0.0000004431  0.000011  0.000016  0.000059  0.000001
 11   -263.95151602  -0.0000000077  0.000006  0.000017  0.000024  0.000001
                 **** Energy Check signals convergence ****
              ***Rediagonalizing the Fockian in SOSCF/NRSCF***

               *****************************************************
               *                     SUCCESS                       *
               *           SCF CONVERGED AFTER  12 CYCLES          *
               *****************************************************


----------------
TOTAL SCF ENERGY
----------------

Total Energy       :         -263.95151603 Eh           -7182.48590 eV

Components:
Nuclear Repulsion  :          178.50780790 Eh            4857.44440 eV
Electronic Energy  :         -442.45932393 Eh          -12039.93030 eV
One Electron Energy:         -709.77707262 Eh          -19314.01605 eV
Two Electron Energy:          267.31774869 Eh            7274.08575 eV

Virial components:
Potential Energy   :         -527.36889909 Eh          -14350.43731 eV
Kinetic Energy     :          263.41738306 Eh            7167.95140 eV
Virial Ratio       :            2.00202771


---------------
SCF CONVERGENCE
---------------

  Last Energy change         ...   -2.0742e-09  Tolerance :   1.0000e-08
  Last MAX-Density change    ...    1.0314e-05  Tolerance :   1.0000e-07
  Last RMS-Density change    ...    2.4397e-07  Tolerance :   5.0000e-09
  Last Orbital Gradient      ...    2.3237e-06  Tolerance :   1.0000e-05
  Last Orbital Rotation      ...    5.8603e-06  Tolerance :   1.0000e-05

             **** THE GBW FILE WAS UPDATED (4mecn.malloum.etal.dset.2mecn.dset-orca.engrad-mp2.def2tzvp.gbw) ****
             **** DENSITY FILE WAS UPDATED (4mecn.malloum.etal.dset.2mecn.dset-orca.engrad-mp2.def2tzvp.scfp) ****
             **** ENERGY FILE WAS UPDATED (4mecn.malloum.etal.dset.2mecn.dset-orca.engrad-mp2.def2tzvp.en.tmp) ****
             **** THE GBW FILE WAS UPDATED (4mecn.malloum.etal.dset.2mecn.dset-orca.engrad-mp2.def2tzvp.gbw) ****
             **** DENSITY FILE WAS UPDATED (4mecn.malloum.etal.dset.2mecn.dset-orca.engrad-mp2.def2tzvp.scfp) ****
----------------
ORBITAL ENERGIES
----------------

  NO   OCC          E(Eh)            E(eV) 
   0   2.0000     -15.580062      -423.9550 
   1   2.0000     -15.556267      -423.3075 
   2   2.0000     -11.292589      -307.2870 
   3   2.0000     -11.288936      -307.1876 
   4   2.0000     -11.268750      -306.6383 
   5   2.0000     -11.265184      -306.5413 
   6   2.0000      -1.225617       -33.3507 
   7   2.0000      -1.201099       -32.6836 
   8   2.0000      -1.047452       -28.5026 
   9   2.0000      -1.023651       -27.8550 
  10   2.0000      -0.704385       -19.1673 
  11   2.0000      -0.680717       -18.5233 
  12   2.0000      -0.639311       -17.3965 
  13   2.0000      -0.635479       -17.2923 
  14   2.0000      -0.617149       -16.7935 
  15   2.0000      -0.612732       -16.6733 
  16   2.0000      -0.563413       -15.3312 
  17   2.0000      -0.541376       -14.7316 
  18   2.0000      -0.469470       -12.7749 
  19   2.0000      -0.468916       -12.7598 
  20   2.0000      -0.444711       -12.1012 
  21   2.0000      -0.443524       -12.0689 
  22   0.0000       0.106541         2.8991 
  23   0.0000       0.144434         3.9302 
  24   0.0000       0.163879         4.4594 
  25   0.0000       0.165567         4.5053 
  26   0.0000       0.181079         4.9274 
  27   0.0000       0.188688         5.1345 
  28   0.0000       0.207933         5.6581 
  29   0.0000       0.211262         5.7487 
  30   0.0000       0.217235         5.9113 
  31   0.0000       0.224486         6.1086 
  32   0.0000       0.245429         6.6785 
  33   0.0000       0.251265         6.8373 
  34   0.0000       0.270479         7.3601 
  35   0.0000       0.279645         7.6095 
  36   0.0000       0.314449         8.5566 
  37   0.0000       0.324359         8.8262 
  38   0.0000       0.328532         8.9398 
  39   0.0000       0.358295         9.7497 
  40   0.0000       0.373396        10.1606 
  41   0.0000       0.393457        10.7065 
  42   0.0000       0.419903        11.4261 
  43   0.0000       0.430481        11.7140 
  44   0.0000       0.451160        12.2767 
  45   0.0000       0.502796        13.6818 
  46   0.0000       0.512117        13.9354 
  47   0.0000       0.517251        14.0751 
  48   0.0000       0.531360        14.4590 
  49   0.0000       0.563862        15.3435 
  50   0.0000       0.583374        15.8744 
  51   0.0000       0.599890        16.3238 
  52   0.0000       0.603904        16.4331 
  53   0.0000       0.614787        16.7292 
  54   0.0000       0.626507        17.0481 
  55   0.0000       0.629750        17.1364 
  56   0.0000       0.661627        18.0038 
  57   0.0000       0.676363        18.4048 
  58   0.0000       0.686966        18.6933 
  59   0.0000       0.697106        18.9692 
  60   0.0000       0.714425        19.4405 
  61   0.0000       0.740839        20.1592 
  62   0.0000       0.802974        21.8500 
  63   0.0000       0.816053        22.2059 
  64   0.0000       0.828857        22.5543 
  65   0.0000       0.854966        23.2648 
  66   0.0000       0.871649        23.7188 
  67   0.0000       0.887010        24.1368 
  68   0.0000       0.922074        25.0909 
  69   0.0000       0.936759        25.4905 
  70   0.0000       0.943813        25.6825 
  71   0.0000       0.973349        26.4862 
  72   0.0000       1.040042        28.3010 
  73   0.0000       1.058606        28.8061 
  74   0.0000       1.131791        30.7976 
  75   0.0000       1.133446        30.8426 
  76   0.0000       1.147574        31.2271 
  77   0.0000       1.191321        32.4175 
  78   0.0000       1.316210        35.8159 
  79   0.0000       1.335275        36.3347 
  80   0.0000       1.409543        38.3556 
  81   0.0000       1.414455        38.4893 
  82   0.0000       1.425447        38.7884 
  83   0.0000       1.437685        39.1214 
  84   0.0000       1.450984        39.4833 
  85   0.0000       1.462132        39.7866 
  86   0.0000       1.478436        40.2303 
  87   0.0000       1.489155        40.5220 
  88   0.0000       1.501212        40.8501 
  89   0.0000       1.523181        41.4479 
  90   0.0000       1.529803        41.6281 
  91   0.0000       1.579981        42.9935 
  92   0.0000       1.704279        46.3758 
  93   0.0000       1.715616        46.6843 
  94   0.0000       1.730626        47.0927 
  95   0.0000       1.740546        47.3627 
  96   0.0000       1.749514        47.6067 
  97   0.0000       1.760054        47.8935 
  98   0.0000       1.777931        48.3800 
  99   0.0000       1.786589        48.6156 
 100   0.0000       1.800549        48.9954 
 101   0.0000       1.811412        49.2910 
 102   0.0000       1.830801        49.8186 
 103   0.0000       1.857780        50.5528 
[...]
 11 N      7.2132     7.0000    -0.2132     3.1985     2.7121     0.4864

  Mayer bond orders larger than 0.100000
B(  0-C ,  1-H ) :   0.9307 B(  0-C ,  2-H ) :   0.9158 B(  0-C ,  3-H ) :   0.9307 
B(  0-C ,  4-C ) :   0.8743 B(  4-C ,  5-N ) :   2.7423 B(  6-C ,  7-H ) :   0.9255 
B(  6-C ,  8-H ) :   0.9251 B(  6-C ,  9-H ) :   0.9252 B(  6-C , 10-C ) :   0.8776 
B( 10-C , 11-N ) :   2.6956 


                *******************************************
                * RELAXED MP2 DENSITY POPULATION ANALYSIS *
                *******************************************

------------------------------------------------------------------------------
                           ORCA POPULATION ANALYSIS
------------------------------------------------------------------------------
Input electron density              ... 4mecn.malloum.etal.dset.2mecn.dset-orca.engrad-mp2.def2tzvp_job36.pmp2re
BaseName (.gbw .S,...)              ... 4mecn.malloum.etal.dset.2mecn.dset-orca.engrad-mp2.def2tzvp_job36

                    ********************************
                    * MULLIKEN POPULATION ANALYSIS *
                    ********************************

-----------------------
MULLIKEN ATOMIC CHARGES
-----------------------
   0 C :   -0.275023
   1 H :    0.159427
   2 H :    0.192453
   3 H :    0.159414
   4 C :   -0.156050
   5 N :   -0.095621
   6 C :   -0.284108
   7 H :    0.178771
   8 H :    0.175045
   9 H :    0.175056
  10 C :   -0.103898
  11 N :   -0.125466
Sum of atomic charges:    0.0000000

--------------------------------
MULLIKEN REDUCED ORBITAL CHARGES
--------------------------------
  0 C s       :     3.174459  s :     3.174459
      pz      :     1.071026  p :     3.017892
      px      :     1.112745
      py      :     0.834121
      dz2     :     0.013568  d :     0.075641
      dxz     :     0.014267
      dyz     :     0.015629
      dx2y2   :     0.014438
      dxy     :     0.017740
      f0      :     0.000699  f :     0.007031
      f+1     :     0.001597
      f-1     :     0.000988
      f+2     :     0.000773
      f-2     :     0.000603
      f+3     :     0.000886
      f-3     :     0.001485
  1 H s       :     0.816471  s :     0.816471
      pz      :     0.010995  p :     0.024102
      px      :     0.007412
      py      :     0.005695
  2 H s       :     0.782147  s :     0.782147
      pz      :     0.004817  p :     0.025400
      px      :     0.013879
      py      :     0.006703
  3 H s       :     0.816484  s :     0.816484
      pz      :     0.011053  p :     0.024102
      px      :     0.007362
      py      :     0.005687
  4 C s       :     3.224860  s :     3.224860
      pz      :     0.902977  p :     2.806903
      px      :     0.901265
      py      :     1.002660
      dz2     :     0.009574  d :     0.105567
      dxz     :     0.005222
      dyz     :     0.035030
      dx2y2   :     0.019503
      dxy     :     0.036237
      f0      :     0.002526  f :     0.018721
      f+1     :     0.000635
      f-1     :     0.001982
      f+2     :     0.003952
      f-2     :     0.000691
      f+3     :     0.005861
      f-3     :     0.003073
  5 N s       :     3.627521  s :     3.627521
      pz      :     1.060646  p :     3.394839
      px      :     1.064421
      py      :     1.269772
      dz2     :     0.007320  d :     0.068016
      dxz     :     0.004990
      dyz     :     0.021711
      dx2y2   :     0.012398
      dxy     :     0.021597
      f0      :     0.000720  f :     0.005244
      f+1     :     0.000354
      f-1     :     0.000607
      f+2     :     0.001005
      f-2     :     0.000431
      f+3     :     0.001354
      f-3     :     0.000774
  6 C s       :     3.191569  s :     3.191569
      pz      :     1.089397  p :     3.009273
      px      :     0.828131
      py      :     1.091745
      dz2     :     0.013681  d :     0.076251
      dxz     :     0.016180
      dyz     :     0.014030
      dx2y2   :     0.014419
      dxy     :     0.017940
      f0      :     0.000698  f :     0.007015
      f+1     :     0.000996
      f-1     :     0.001598
      f+2     :     0.000770
      f-2     :     0.000599
      f+3     :     0.001476
      f-3     :     0.000878
  7 H s       :     0.797186  s :     0.797186
      pz      :     0.004960  p :     0.024042
      px      :     0.006456
      py      :     0.012626
  8 H s       :     0.800847  s :     0.800847
      pz      :     0.011118  p :     0.024108
      px      :     0.005653
      py      :     0.007337
  9 H s       :     0.800835  s :     0.800835
      pz      :     0.011174  p :     0.024108
      px      :     0.005646
      py      :     0.007288
 10 C s       :     3.230580  s :     3.230580
      pz      :     0.895559  p :     2.745740
      px      :     0.956563
      py      :     0.893618
      dz2     :     0.010279  d :     0.108614
      dxz     :     0.035494
      dyz     :     0.005182
      dx2y2   :     0.021662
      dxy     :     0.035998
      f0      :     0.002570  f :     0.018965
      f+1     :     0.002009
      f-1     :     0.000642
      f+2     :     0.004006
      f-2     :     0.000687
      f+3     :     0.003115
      f-3     :     0.005936
 11 N s       :     3.672938  s :     3.672938
      pz      :     1.066563  p :     3.381001
      px      :     1.246209
      py      :     1.068229
      dz2     :     0.007233  d :     0.066249
      dxz     :     0.021090
      dyz     :     0.004997
      dx2y2   :     0.012006
      dxy     :     0.020923
      f0      :     0.000729  f :     0.005278
      f+1     :     0.000611
      f-1     :     0.000356
      f+2     :     0.001010
      f-2     :     0.000433
      f+3     :     0.000778
      f-3     :     0.001360


                     *******************************
                     * LOEWDIN POPULATION ANALYSIS *
                     *******************************

----------------------
LOEWDIN ATOMIC CHARGES
----------------------
   0 C :   -0.287208
   1 H :    0.147967
   2 H :    0.151019
   3 H :    0.147965
   4 C :   -0.217136
   5 N :    0.035257
   6 C :   -0.277473
   7 H :    0.153459
   8 H :    0.152409
   9 H :    0.152415
  10 C :   -0.199870
  11 N :    0.041197

-------------------------------
LOEWDIN REDUCED ORBITAL CHARGES
-------------------------------
  0 C s       :     2.820970  s :     2.820970
      pz      :     1.059497  p :     3.164307
      px      :     1.078174
      py      :     1.026635
      dz2     :     0.042535  d :     0.271462
      dxz     :     0.038795
      dyz     :     0.061400
      dx2y2   :     0.059642
      dxy     :     0.069091
      f0      :     0.002688  f :     0.030469
      f+1     :     0.004197
      f-1     :     0.004654
      f+2     :     0.004485
      f-2     :     0.002590
      f+3     :     0.005486
      f-3     :     0.006370
  1 H s       :     0.786053  s :     0.786053
      pz      :     0.030965  p :     0.065981
      px      :     0.020872
      py      :     0.014144
  2 H s       :     0.777913  s :     0.777913
      pz      :     0.013590  p :     0.071068
      px      :     0.040509
      py      :     0.016969
  3 H s       :     0.786055  s :     0.786055
      pz      :     0.031125  p :     0.065980
      px      :     0.020731
      py      :     0.014124
  4 C s       :     2.845533  s :     2.845533
      pz      :     0.842121  p :     2.855654
      px      :     0.843662
      py      :     1.169870
      dz2     :     0.044139  d :     0.449706
      dxz     :     0.006209
      dyz     :     0.135591
      dx2y2   :     0.123145
      dxy     :     0.140622
      f0      :     0.007414  f :     0.066243
      f+1     :     0.001490
      f-1     :     0.009965
      f+2     :     0.011858
      f-2     :     0.001048
      f+3     :     0.018190
      f-3     :     0.016278
  5 N s       :     3.302865  s :     3.302865
      pz      :     1.016171  p :     3.505497
      px      :     1.020549
      py      :     1.468777
      dz2     :     0.016962  d :     0.136900
      dxz     :     0.005002
      dyz     :     0.036728
      dx2y2   :     0.041195
      dxy     :     0.037013
      f0      :     0.002135  f :     0.019481
      f+1     :     0.000603
      f-1     :     0.003100
      f+2     :     0.003307
      f-2     :     0.000505
      f+3     :     0.004920
      f-3     :     0.004910
  6 C s       :     2.820500  s :     2.820500
      pz      :     1.065078  p :     3.154119
      px      :     1.023615
      py      :     1.065425
      dz2     :     0.043230  d :     0.272359
      dxz     :     0.061217
      dyz     :     0.037623
      dx2y2   :     0.060045
      dxy     :     0.070244
      f0      :     0.002680  f :     0.030494
      f+1     :     0.004672
      f-1     :     0.004151
      f+2     :     0.004465
      f-2     :     0.002546
      f+3     :     0.006481
      f-3     :     0.005498
  7 H s       :     0.780594  s :     0.780594
      pz      :     0.013893  p :     0.065947
      px      :     0.016028
      py      :     0.036027
  8 H s       :     0.781469  s :     0.781469
      pz      :     0.031493  p :     0.066122
      px      :     0.014034
      py      :     0.020595
  9 H s       :     0.781464  s :     0.781464
      pz      :     0.031648  p :     0.066122
      px      :     0.014017
      py      :     0.020457
 10 C s       :     2.841993  s :     2.841993
      pz      :     0.838708  p :     2.843872
      px      :     1.164787
      py      :     0.840377
      dz2     :     0.044259  d :     0.447423
      dxz     :     0.136065
      dyz     :     0.006143
      dx2y2   :     0.123182
      dxy     :     0.137774
      f0      :     0.007484  f :     0.066582
      f+1     :     0.009992
      f-1     :     0.001501
      f+2     :     0.011959
      f-2     :     0.001045
      f+3     :     0.016308
      f-3     :     0.018293
 11 N s       :     3.296314  s :     3.296314
      pz      :     1.020182  p :     3.506742
      px      :     1.463913
      py      :     1.022646
      dz2     :     0.017012  d :     0.136178
      dxz     :     0.036252
      dyz     :     0.005012
      dx2y2   :     0.041083
      dxy     :     0.036819
      f0      :     0.002151  f :     0.019570
      f+1     :     0.003109
      f-1     :     0.000607
      f+2     :     0.003325
      f-2     :     0.000507
      f+3     :     0.004924
      f-3     :     0.004946


                      *****************************
                      * MAYER POPULATION ANALYSIS *
                      *****************************

  NA   - Mulliken gross atomic population
  ZA   - Total nuclear charge
  QA   - Mulliken gross atomic charge
  VA   - Mayer's total valence
  BVA  - Mayer's bonded valence
  FA   - Mayer's free valence

  ATOM       NA         ZA         QA         VA         BVA        FA
  0 C      6.2750     6.0000    -0.2750     3.9051     3.6229     0.2821
  1 H      0.8406     1.0000     0.1594     0.9681     0.9205     0.0476
  2 H      0.8075     1.0000     0.1925     0.9800     0.9320     0.0480
  3 H      0.8406     1.0000     0.1594     0.9681     0.9205     0.0476
  4 C      6.1560     6.0000    -0.1560     4.1679     3.7438     0.4241
  5 N      7.0956     7.0000    -0.0956     3.3571     2.8873     0.4698
  6 C      6.2841     6.0000    -0.2841     3.9366     3.6546     0.2820
  7 H      0.8212     1.0000     0.1788     0.9621     0.9155     0.0466
  8 H      0.8250     1.0000     0.1750     0.9625     0.9158     0.0467
  9 H      0.8249     1.0000     0.1751     0.9626     0.9158     0.0467
 10 C      6.1039     6.0000    -0.1039     4.0809     3.6596     0.4212
 11 N      7.1255     7.0000    -0.1255     3.2979     2.8244     0.4735

  Mayer bond orders larger than 0.100000
B(  0-C ,  1-H ) :   0.9194 B(  0-C ,  2-H ) :   0.9028 B(  0-C ,  3-H ) :   0.9194 
B(  0-C ,  4-C ) :   0.9010 B(  4-C ,  5-N ) :   2.8541 B(  6-C ,  7-H ) :   0.9162 
B(  6-C ,  8-H ) :   0.9160 B(  6-C ,  9-H ) :   0.9160 B(  6-C , 10-C ) :   0.9035 
B( 10-C , 11-N ) :   2.7731 


----------------------------------
MP2 DERIVATIVE INTEGRAL GENERATION
----------------------------------


Input Wavefunction Amplitudes       ... 4mecn.malloum.etal.dset.2mecn.dset-orca.engrad-mp2.def2tzvp_job36.mp2tsaa.tmp
Input Correlated Electron Density   ... 4mecn.malloum.etal.dset.2mecn.dset-orca.engrad-mp2.def2tzvp_job36.pmp2re
Input Energy Weighted Density       ... 4mecn.malloum.etal.dset.2mecn.dset-orca.engrad-mp2.def2tzvp_job36.wmp2.tmp
Input SCF Electron Density          ... 4mecn.malloum.etal.dset.2mecn.dset-orca.engrad-mp2.def2tzvp_job36.scfp

One-Electron Terms    ...
                        ... One-Electron Terms done
Prescreening matrices              ... done

Batch handling in the gradient evaluation:
Memory available                      ... 8000.0 MB
Memory per occupied orbital in Q2     ...    6.0 MB
Memory per occupied orbital in Q3     ...    0.1 MB
Total memory requirement per |i>      ...    6.1 MB
Max. Number of orbitals possible      ...   1311
Number of orbitals treated per batch  ...     16
Number of batches to be done          ...      1
Batch   0: i=    6 ...    21

---------------------------------------
MP2 TOTAL ENERGY:     -264.971454143 Eh
---------------------------------------

The final MP2 gradient
  0:   0.00047007   0.00041670   0.00000076
  1:   0.00112501  -0.00076866  -0.00206387
  2:  -0.00308868  -0.00142716  -0.00000730
  3:   0.00110952  -0.00076595   0.00207356
  4:  -0.00138523   0.01799456  -0.00002178
  5:   0.00133457  -0.01559509   0.00001810
  6:   0.00050979  -0.00007322   0.00000076
  7:  -0.00196314   0.00326122   0.00000852
  8:  -0.00065816  -0.00150255   0.00209948
  9:  -0.00065587  -0.00148854  -0.00211044
 10:   0.01659781   0.00074726   0.00001644
 11:  -0.01339570  -0.00079858  -0.00001424

-----------------------------------
NORM OF THE MP2 GRADIENT:  0.032863
-----------------------------------

-------------------------   --------------------
FINAL SINGLE POINT ENERGY      -264.971454142630
-------------------------   --------------------


                            ***************************************
                            *     ORCA property calculations      *
                            ***************************************

                                    ---------------------
                                    Active property flags
                                    ---------------------
   (+) Dipole Moment


------------------------------------------------------------------------------
                       ORCA ELECTRIC PROPERTIES CALCULATION
------------------------------------------------------------------------------

Dipole Moment Calculation                       ... on
Quadrupole Moment Calculation                   ... off
Polarizability Calculation                      ... off
GBWName                                         ... 4mecn.malloum.etal.dset.2mecn.dset-orca.engrad-mp2.def2tzvp_job36.gbw
Electron density file                           ... 4mecn.malloum.etal.dset.2mecn.dset-orca.engrad-mp2.def2tzvp_job36.scfp
The origin for moment calculation is the CENTER OF MASS  = (-0.000034, -0.000040  0.000000)

-------------
DIPOLE MOMENT
-------------
                                X             Y             Z
Electronic contribution:      2.52067       3.10404      -0.00105
Nuclear contribution   :     -4.29870      -5.04053       0.00081
                        -----------------------------------------
Total Dipole Moment    :     -1.77803      -1.93649      -0.00024
                        -----------------------------------------
Magnitude (a.u.)       :      2.62895
Magnitude (Debye)      :      6.68226



--------------------
Rotational spectrum 
--------------------
 
Rotational constants in cm-1:     0.289059     0.027359     0.025232 
Rotational constants in MHz :  8665.758392   820.203382   756.438156 

 Dipole components along the rotational axes: 
x,y,z [a.u.] :    -2.542190     0.669806     0.002554 
x,y,z [Debye]:    -6.461733     1.702511     0.006491 

 

                         *** MP2 UNRELAXED DENSITY ***

------------------------------------------------------------------------------
                       ORCA ELECTRIC PROPERTIES CALCULATION
------------------------------------------------------------------------------

Dipole Moment Calculation                       ... on
Quadrupole Moment Calculation                   ... off
Polarizability Calculation                      ... off
GBWName                                         ... 4mecn.malloum.etal.dset.2mecn.dset-orca.engrad-mp2.def2tzvp_job36.gbw
Electron density file                           ... 4mecn.malloum.etal.dset.2mecn.dset-orca.engrad-mp2.def2tzvp_job36.pmp2ur
The origin for moment calculation is the CENTER OF MASS  = (-0.000034, -0.000040  0.000000)

-------------
DIPOLE MOMENT
-------------
                                X             Y             Z
Electronic contribution:      2.55257       3.14121      -0.00106
Nuclear contribution   :     -4.29870      -5.04053       0.00081
                        -----------------------------------------
Total Dipole Moment    :     -1.74612      -1.89932      -0.00025
                        -----------------------------------------
Magnitude (a.u.)       :      2.57999
Magnitude (Debye)      :      6.55782



--------------------
Rotational spectrum 
--------------------
 
Rotational constants in cm-1:     0.289059     0.027359     0.025232 
Rotational constants in MHz :  8665.758392   820.203382   756.438156 

 Dipole components along the rotational axes: 
x,y,z [a.u.] :    -2.495263     0.655752     0.002496 
x,y,z [Debye]:    -6.342454     1.666788     0.006344 

 

                           *** MP2 RELAXED DENSITY ***

------------------------------------------------------------------------------
                       ORCA ELECTRIC PROPERTIES CALCULATION
------------------------------------------------------------------------------

Dipole Moment Calculation                       ... on
Quadrupole Moment Calculation                   ... off
Polarizability Calculation                      ... off
GBWName                                         ... 4mecn.malloum.etal.dset.2mecn.dset-orca.engrad-mp2.def2tzvp_job36.gbw
Electron density file                           ... 4mecn.malloum.etal.dset.2mecn.dset-orca.engrad-mp2.def2tzvp_job36.pmp2re
The origin for moment calculation is the CENTER OF MASS  = (-0.000034, -0.000040  0.000000)

-------------
DIPOLE MOMENT
-------------
                                X             Y             Z
Electronic contribution:      2.65431       3.25279      -0.00107
Nuclear contribution   :     -4.29870      -5.04053       0.00081
                        -----------------------------------------
Total Dipole Moment    :     -1.64439      -1.78774      -0.00026
                        -----------------------------------------
Magnitude (a.u.)       :      2.42900
Magnitude (Debye)      :      6.17403



--------------------
Rotational spectrum 
--------------------
 
Rotational constants in cm-1:     0.289059     0.027359     0.025232 
Rotational constants in MHz :  8665.758392   820.203382   756.438156 

 Dipole components along the rotational axes: 
x,y,z [a.u.] :    -2.349387     0.616775     0.002328 
x,y,z [Debye]:    -5.971667     1.567718     0.005918 

 

Timings for individual modules:

Sum of individual times         ...       33.590 sec (=   0.560 min)
GTO integral calculation        ...        0.869 sec (=   0.014 min)   2.6 %
SCF iterations                  ...        9.784 sec (=   0.163 min)  29.1 %
MP2 module                      ...       22.937 sec (=   0.382 min)  68.3 %



                             ****ORCA TERMINATED NORMALLY****
TOTAL RUN TIME: 0 days 0 hours 23 minutes 28 seconds 239 msec
