
                                 *****************
                                 * O   R   C   A *
                                 *****************

           --- An Ab Initio, DFT and Semiempirical electronic structure package ---

                  #######################################################
                  #                        -***-                        #
                  #          Department of theory and spectroscopy      #
                  #               Directorship: Frank Neese             #
                  #        Max Planck Institute fuer Kohlenforschung    #
                  #                Kaiser Wilhelm Platz 1               #
                  #                 D-45470 Muelheim/Ruhr               #
                  #                      Germany                        #
                  #                                                     #
                  #                  All rights reserved                #
                  #                        -***-                        #
                  #######################################################


                         Program Version 4.2.0 -  RELEASE  -


 With contributions from (in alphabetic order):
   Daniel Aravena         : Magnetic Suceptibility
   Michael Atanasov       : Ab Initio Ligand Field Theory (pilot matlab implementation)
   Alexander A. Auer      : GIAO ZORA, VPT2
   Ute Becker             : Parallelization
   Giovanni Bistoni       : ED, misc. LED, open-shell LED, HFLED
   Martin Brehm           : Molecular dynamics
   Dmytro Bykov           : SCF Hessian
   Vijay G. Chilkuri      : MRCI spin determinant printing, contributions to CSF-ICE
   Dipayan Datta          : RHF DLPNO-CCSD density
   Achintya Kumar Dutta   : EOM-CC, STEOM-CC
   Dmitry Ganyushin       : Spin-Orbit,Spin-Spin,Magnetic field MRCI
   Miquel Garcia          : C-PCM Hessian, Gaussian charge scheme
   Yang Guo               : DLPNO-NEVPT2, CIM, IAO-localization
   Andreas Hansen         : Spin unrestricted coupled pair/coupled cluster methods
   Benjamin Helmich-Paris : CASSCF linear response (MC-RPA)
   Lee Huntington         : MR-EOM, pCC
   Robert Izsak           : Overlap fitted RIJCOSX, COSX-SCS-MP3, EOM
   Christian Kollmar      : KDIIS, OOCD, Brueckner-CCSD(T), CCSD density
   Simone Kossmann        : Meta GGA functionals, TD-DFT gradient, OOMP2, MP2 Hessian
   Martin Krupicka        : AUTO-CI
   Lucas Lang             : DCDCAS
   Dagmar Lenk            : GEPOL surface, SMD
   Dimitrios Liakos       : Extrapolation schemes; Compound Job, initial MDCI parallelization
   Dimitrios Manganas     : Further ROCIS development; embedding schemes
   Dimitrios Pantazis     : SARC Basis sets
   Taras Petrenko         : DFT Hessian,TD-DFT gradient, ASA, ECA, R-Raman, ABS, FL, XAS/XES, NRVS
   Peter Pinski           : DLPNO-MP2, DLPNO-MP2 Gradient
   Christoph Reimann      : Effective Core Potentials
   Marius Retegan         : Local ZFS, SOC
   Christoph Riplinger    : Optimizer, TS searches, QM/MM, DLPNO-CCSD(T), (RO)-DLPNO pert. Triples
   Tobias Risthaus        : Range-separated hybrids, TD-DFT gradient, RPA, STAB
   Michael Roemelt        : Original ROCIS implementation
   Masaaki Saitow         : Open-shell DLPNO-CCSD energy and density
   Barbara Sandhoefer     : DKH picture change effects
   Avijit Sen             : IP-ROCIS
   Kantharuban Sivalingam : CASSCF convergence, NEVPT2, FIC-MRCI
   Bernardo de Souza      : ESD, SOC TD-DFT
   Georgi Stoychev        : AutoAux, RI-MP2 NMR
   Willem Van den Heuvel  : Paramagnetic NMR
   Boris Wezisla          : Elementary symmetry handling
   Frank Wennmohs         : Technical directorship


 We gratefully acknowledge several colleagues who have allowed us to
 interface, adapt or use parts of their codes:
   Stefan Grimme, W. Hujo, H. Kruse,             : VdW corrections, initial TS optimization,
                  C. Bannwarth                     DFT functionals, gCP, sTDA/sTD-DF
   Ed Valeev, F. Pavosevic, A. Kumar             : LibInt (2-el integral package), F12 methods
   Garnet Chan, S. Sharma, J. Yang, R. Olivares  : DMRG
   Ulf Ekstrom                                   : XCFun DFT Library
   Mihaly Kallay                                 : mrcc  (arbitrary order and MRCC methods)
   Andreas Klamt, Michael Diedenhofen            : otool_cosmo (COSMO solvation model)
   Jiri Pittner, Ondrej Demel                    : Mk-CCSD
   Frank Weinhold                                : gennbo (NPA and NBO analysis)
   Christopher J. Cramer and Donald G. Truhlar   : smd solvation model
   Lars Goerigk                                  : TD-DFT with DH, B97 family of functionals
   V. Asgeirsson, H. Jonsson                     : NEB implementation
   FAccTs GmbH                                   : IRC, NEB, NEB-TS, Multilevel, MM, QM/MM, CI optimization
   S Lehtola, MJT Oliveira, MAL Marques          : LibXC Library


 Your calculation uses the libint2 library for the computation of 2-el integrals
 For citations please refer to: http://libint.valeyev.net

 Your ORCA version has been built with support for libXC version: 4.2.3
 For citations please refer to: https://tddft.org/programs/libxc/

 This ORCA versions uses:
   CBLAS   interface :  Fast vector & matrix operations
   LAPACKE interface :  Fast linear algebra routines
   SCALAPACK package :  Parallel linear algebra routines


----- Orbital basis set information -----
Your calculation utilizes the basis: aug-cc-pVTZ 
    H, B-Ne : Obtained from the ccRepo (grant-hill.group.shef.ac.uk/ccrepo) Feb. 2017
              R. A. Kendall, T. H. Dunning, Jr., R. J. Harrison, J. Chem. Phys. 96, 6796 (1992)
         He : Obtained from the ccRepo (grant-hill.group.shef.ac.uk/ccrepo) Feb. 2017
              D. E. Woon, T. H. Dunning, Jr., J. Chem. Phys. 100, 2975 (1994)
  Li-Be, Na : Obtained from the ccRepo (grant-hill.group.shef.ac.uk/ccrepo) Feb. 2017
              B. P. Prascher, D. E. Woon, K. A. Peterson, T. H. Dunning, Jr., A. K. Wilson, Theor. Chem. Acc. 128, 69 (2011)
         Mg : Obtained from the Peterson Research Group Website (tyr0.chem.wsu.edu/~kipeters) Feb. 2017
              B. P. Prascher, D. E. Woon, K. A. Peterson, T. H. Dunning, Jr., A. K. Wilson, Theor. Chem. Acc. 128, 69 (2011)
      Al-Ar : Obtained from the ccRepo (grant-hill.group.shef.ac.uk/ccrepo) Feb. 2017
              D. E. Woon, T. H. Dunning, Jr., J. Chem. Phys. 98, 1358 (1993)
      Sc-Zn : Obtained from the ccRepo (grant-hill.group.shef.ac.uk/ccrepo) Feb. 2017
              N. B. Balabanov, K. A. Peterson, J. Chem. Phys. 123, 064107 (2005)
              N. B. Balabanov, K. A. Peterson, J. Chem. Phys. 125, 074110 (2006)
      Ga-Kr : Obtained from the ccRepo (grant-hill.group.shef.ac.uk/ccrepo) Feb. 2017
              A. K. Wilson, D. E. Woon, K. A. Peterson, T. H. Dunning, Jr., J. Chem. Phys. 110, 7667 (1999)
     Ag, Au : Obtained from the Peterson Research Group Website (tyr0.chem.wsu.edu/~kipeters) Feb. 2017
              K. A. Peterson, C. Puzzarini, Theor. Chem. Acc. 114, 283 (2005)

================================================================================
                                        WARNINGS
                       Please study these warnings very carefully!
================================================================================


WARNING: The frozen-core approximation for MP2-gradient calculations is turned on by default.

INFO   : the flag for use of LIBINT has been found!

----- Orbital basis set information -----
Your calculation utilizes the basis: aug-cc-pVTZ 
    H, B-Ne : Obtained from the ccRepo (grant-hill.group.shef.ac.uk/ccrepo) Feb. 2017
              R. A. Kendall, T. H. Dunning, Jr., R. J. Harrison, J. Chem. Phys. 96, 6796 (1992)
         He : Obtained from the ccRepo (grant-hill.group.shef.ac.uk/ccrepo) Feb. 2017
              D. E. Woon, T. H. Dunning, Jr., J. Chem. Phys. 100, 2975 (1994)
  Li-Be, Na : Obtained from the ccRepo (grant-hill.group.shef.ac.uk/ccrepo) Feb. 2017
              B. P. Prascher, D. E. Woon, K. A. Peterson, T. H. Dunning, Jr., A. K. Wilson, Theor. Chem. Acc. 128, 69 (2011)
         Mg : Obtained from the Peterson Research Group Website (tyr0.chem.wsu.edu/~kipeters) Feb. 2017
              B. P. Prascher, D. E. Woon, K. A. Peterson, T. H. Dunning, Jr., A. K. Wilson, Theor. Chem. Acc. 128, 69 (2011)
      Al-Ar : Obtained from the ccRepo (grant-hill.group.shef.ac.uk/ccrepo) Feb. 2017
              D. E. Woon, T. H. Dunning, Jr., J. Chem. Phys. 98, 1358 (1993)
      Sc-Zn : Obtained from the ccRepo (grant-hill.group.shef.ac.uk/ccrepo) Feb. 2017
              N. B. Balabanov, K. A. Peterson, J. Chem. Phys. 123, 064107 (2005)
              N. B. Balabanov, K. A. Peterson, J. Chem. Phys. 125, 074110 (2006)
      Ga-Kr : Obtained from the ccRepo (grant-hill.group.shef.ac.uk/ccrepo) Feb. 2017
              A. K. Wilson, D. E. Woon, K. A. Peterson, T. H. Dunning, Jr., J. Chem. Phys. 110, 7667 (1999)
     Ag, Au : Obtained from the Peterson Research Group Website (tyr0.chem.wsu.edu/~kipeters) Feb. 2017
              K. A. Peterson, C. Puzzarini, Theor. Chem. Acc. 114, 283 (2005)

================================================================================
                                        WARNINGS
                       Please study these warnings very carefully!
================================================================================


WARNING: The frozen-core approximation for MP2-gradient calculations is turned on by default.

INFO   : the flag for use of LIBINT has been found!

----- Orbital basis set information -----
Your calculation utilizes the basis: aug-cc-pVTZ 
    H, B-Ne : Obtained from the ccRepo (grant-hill.group.shef.ac.uk/ccrepo) Feb. 2017
              R. A. Kendall, T. H. Dunning, Jr., R. J. Harrison, J. Chem. Phys. 96, 6796 (1992)
         He : Obtained from the ccRepo (grant-hill.group.shef.ac.uk/ccrepo) Feb. 2017
              D. E. Woon, T. H. Dunning, Jr., J. Chem. Phys. 100, 2975 (1994)
  Li-Be, Na : Obtained from the ccRepo (grant-hill.group.shef.ac.uk/ccrepo) Feb. 2017
              B. P. Prascher, D. E. Woon, K. A. Peterson, T. H. Dunning, Jr., A. K. Wilson, Theor. Chem. Acc. 128, 69 (2011)
         Mg : Obtained from the Peterson Research Group Website (tyr0.chem.wsu.edu/~kipeters) Feb. 2017
              B. P. Prascher, D. E. Woon, K. A. Peterson, T. H. Dunning, Jr., A. K. Wilson, Theor. Chem. Acc. 128, 69 (2011)
      Al-Ar : Obtained from the ccRepo (grant-hill.group.shef.ac.uk/ccrepo) Feb. 2017
              D. E. Woon, T. H. Dunning, Jr., J. Chem. Phys. 98, 1358 (1993)
      Sc-Zn : Obtained from the ccRepo (grant-hill.group.shef.ac.uk/ccrepo) Feb. 2017
              N. B. Balabanov, K. A. Peterson, J. Chem. Phys. 123, 064107 (2005)
              N. B. Balabanov, K. A. Peterson, J. Chem. Phys. 125, 074110 (2006)
      Ga-Kr : Obtained from the ccRepo (grant-hill.group.shef.ac.uk/ccrepo) Feb. 2017
              A. K. Wilson, D. E. Woon, K. A. Peterson, T. H. Dunning, Jr., J. Chem. Phys. 110, 7667 (1999)
     Ag, Au : Obtained from the Peterson Research Group Website (tyr0.chem.wsu.edu/~kipeters) Feb. 2017
              K. A. Peterson, C. Puzzarini, Theor. Chem. Acc. 114, 283 (2005)

================================================================================
                                        WARNINGS
                       Please study these warnings very carefully!
================================================================================


WARNING: The frozen-core approximation for MP2-gradient calculations is turned on by default.

INFO   : the flag for use of LIBINT has been found!

================================================================================
                                       INPUT FILE
================================================================================
NAME = 4h2o.temelso.etal-orca.engrad-mp2.augccpvtz.inp
|  1> # 4h2o.temelso.etal-orca.engrad-mp2.augccpvtz
|  2> ! MP2 aug-cc-pVTZ EnGrad TightSCF FrozenCore
|  3> 
|  4> %pal
|  5>     nprocs 24
|  6> end
|  7> 
|  8> %maxcore 8000
|  9> 
| 10> %scf
| 11>     ConvForced true
| 12> end
| 13> 
| 14> *xyz 0 1
| 15> O  -1.320198601  -1.380390210  -0.358727797
| 16> H  -1.738398601  -1.594990210  -1.201527797
| 17> H  -1.483398601  -0.416890210  -0.235227797
| 18> O   1.405201399  -1.341990210  -0.003327797
| 19> H   0.447601399  -1.480790210  -0.188027797
| 20> H   1.617101399  -1.979090210   0.689872203
| 21> O   1.309001399   1.370509790   0.430672203
| 22> H   1.467201399   0.402609790   0.338572203
| 23> H   1.950901399   1.782309790  -0.160727797
| 24> O  -1.393998601   1.351909790  -0.068627797
| 25> H  -0.431598601   1.494909790   0.085072203
| 26> H  -1.829498601   1.791309790   0.672172203
| 27> *
| 28> 
| 29> 
| 30> $new_job
| 31> 
| 32> # 4h2o.temelso.etal-orca.engrad-mp2.augccpvtz
| 33> ! MP2 aug-cc-pVTZ EnGrad TightSCF FrozenCore
| 34> 
| 35> %pal
| 36>     nprocs 24
| 37> end
| 38> 
| 39> %maxcore 8000
| 40> 
| 41> %scf
| 42>     ConvForced true
| 43> end
| 44> 
| 45> *xyz 0 1
| 46> O   1.398737412  -1.347769405  -0.120652797
| 47> H   1.655837412  -2.014469405   0.527847203
| 48> H   0.437237412  -1.494969405  -0.271652797
| 49> O   1.319237412   1.310030595   0.576647203
| 50> H   1.995537412   1.800630595   0.094247203
| 51> H   1.476237412   0.365530595   0.344947203
| 52> O  -1.398662588   1.347930595   0.120047203
| 53> H  -0.437162588   1.495130595   0.271447203
| 54> H  -1.655262588   2.014130595  -0.529052797
| 55> O  -1.319362588  -1.310169405  -0.576052797
| 56> H  -1.476262588  -0.365669405  -0.344652797
| 57> H  -1.995362588  -1.800669405  -0.092952797
| 58> *
| 59> 
| 60> 
| 61> $new_job
| 62> 
| 63> # 4h2o.temelso.etal-orca.engrad-mp2.augccpvtz
| 64> ! MP2 aug-cc-pVTZ EnGrad TightSCF FrozenCore
| 65> 
| 66> %pal
| 67>     nprocs 24
| 68> end
| 69> 
| 70> %maxcore 8000
| 71> 
| 72> %scf
| 73>     ConvForced true
| 74> end
| 75> 
| 76> *xyz 0 1
| 77> O   1.735358996  -0.203142318   0.733010781
| 78> H   1.442758996   0.539957682   0.169610781
| 79> H   2.683158996  -0.075442318   0.857310781
| 80> O  -1.665041004   0.324257682   0.855810781
| 81> H  -1.365941004   0.346657682   1.774310781
| 82> H  -1.312341004  -0.521342318   0.503610781
| 83> O   0.132058996   1.399957682  -0.904289219
| 84> H  -0.609541004   1.253257682  -0.273189219
| 85> H   0.011058996   2.290657682  -1.253389219
| 86> O  -0.276941004  -1.610742318  -0.694289219
| 87> H  -0.242441004  -0.928142318  -1.381989219
| 88> H   0.576958996  -1.482142318  -0.241389219
| 89> *
| 90> 
| 91>                          ****END OF INPUT****
================================================================================


                 $$$$$$$$$$$$$$$$$$$$$$$$$$$$$$$$$$$$$$$$$$$$$$ 
                 $ THERE ARE  3 JOBS TO BE PROCESSED THIS RUN $
                 $$$$$$$$$$$$$$$$$$$$$$$$$$$$$$$$$$$$$$$$$$$$$$ 




                 $$$$$$$$$$$$$$$$  JOB NUMBER  1 $$$$$$$$$$$$$$


                     *******************************
                     * Energy+Gradient Calculation *
                     *******************************

---------------------------------
CARTESIAN COORDINATES (ANGSTROEM)
---------------------------------
  O     -1.320199   -1.380390   -0.358728
  H     -1.738399   -1.594990   -1.201528
  H     -1.483399   -0.416890   -0.235228
  O      1.405201   -1.341990   -0.003328
  H      0.447601   -1.480790   -0.188028
  H      1.617101   -1.979090    0.689872
  O      1.309001    1.370510    0.430672
  H      1.467201    0.402610    0.338572
  H      1.950901    1.782310   -0.160728
  O     -1.393999    1.351910   -0.068628
  H     -0.431599    1.494910    0.085072
  H     -1.829499    1.791310    0.672172

----------------------------
CARTESIAN COORDINATES (A.U.)
----------------------------
  NO LB      ZA    FRAG     MASS         X           Y           Z
   0 O     8.0000    0    15.999   -2.494814   -2.608559   -0.677897
   1 H     1.0000    0     1.008   -3.285097   -3.014095   -2.270558
   2 H     1.0000    0     1.008   -2.803217   -0.787808   -0.444516
   3 O     8.0000    0    15.999    2.655446   -2.535994   -0.006289
   4 H     1.0000    0     1.008    0.845844   -2.798288   -0.355321
   5 H     1.0000    0     1.008    3.055879   -3.739938    1.303670
   6 O     8.0000    0    15.999    2.473654    2.589888    0.813853
   7 H     1.0000    0     1.008    2.772609    0.760822    0.639809
   8 H     1.0000    0     1.008    3.686669    3.368077   -0.303732
   9 O     8.0000    0    15.999   -2.634276    2.554739   -0.129688
  10 H     1.0000    0     1.008   -0.815603    2.824970    0.160763
  11 H     1.0000    0     1.008   -3.457251    3.385085    1.270221

--------------------------------
INTERNAL COORDINATES (ANGSTROEM)
--------------------------------
 O      0   0   0     0.000000000000     0.00000000     0.00000000
 H      1   0   0     0.965016186393     0.00000000     0.00000000
 H      1   2   0     0.984996822330   104.78701950     0.00000000
 O      1   2   3     2.748743145512   123.07303403   250.25798596
 H      4   1   2     0.985077301535     8.08435971   310.20628916
 H      4   1   2     0.965051428681   107.53929957   239.02515673
 O      4   1   2     2.748684538102    89.97133568   114.12129453
 H      7   4   1     0.985058404360     8.09755512   160.67811646
 H      7   4   1     0.965074510077   107.52063836   232.05635428
 O      3   1   2     1.778876431909   167.43520570   248.94166705
 H     10   3   1     0.985031192400   102.00903850   342.91587198
 H     10   3   1     0.965151412992   120.12538413   227.77436953

---------------------------
INTERNAL COORDINATES (A.U.)
---------------------------
 O      0   0   0     0.000000000000     0.00000000     0.00000000
 H      1   0   0     1.823616307083     0.00000000     0.00000000
 H      1   2   0     1.861374236986   104.78701950     0.00000000
 O      1   2   3     5.194371757511   123.07303403   250.25798596
 H      4   1   2     1.861526320644     8.08435971   310.20628916
 H      4   1   2     1.823682905357   107.53929957   239.02515673
 O      4   1   2     5.194261005556    89.97133568   114.12129453
 H      7   4   1     1.861490610158     8.09755512   160.67811646
 H      7   4   1     1.823726522873   107.52063836   232.05635428
 O      3   1   2     3.361589282394   167.43520570   248.94166705
 H     10   3   1     1.861439187005   102.00903850   342.91587198
 H     10   3   1     1.823871848322   120.12538413   227.77436953

---------------------
BASIS SET INFORMATION
---------------------
There are 2 groups of distinct atoms

 Group   1 Type O   : 19s6p3d2f contracted to 5s4p3d2f pattern {88111/3111/111/11}
 Group   2 Type H   : 6s3p2d contracted to 4s3p2d pattern {3111/111/11}

Atom   0O    basis set group =>   1
Atom   1H    basis set group =>   2
Atom   2H    basis set group =>   2
Atom   3O    basis set group =>   1
Atom   4H    basis set group =>   2
Atom   5H    basis set group =>   2
Atom   6O    basis set group =>   1
Atom   7H    basis set group =>   2
Atom   8H    basis set group =>   2
Atom   9O    basis set group =>   1
Atom  10H    basis set group =>   2
Atom  11H    basis set group =>   2


           ************************************************************
           *        Program running with 24 parallel MPI-processes    *
           *              working on a common directory               *
           ************************************************************
------------------------------------------------------------------------------
                           ORCA GTO INTEGRAL CALCULATION
------------------------------------------------------------------------------

                         BASIS SET STATISTICS AND STARTUP INFO

 # of primitive gaussian shells          ...  208
 # of primitive gaussian functions       ...  464
 # of contracted shells                  ...  128
 # of contracted basis functions         ...  368
 Highest angular momentum                ...    3
 Maximum contraction depth               ...    8
 Integral package used                   ... LIBINT
 Integral threshhold            Thresh   ...  2.500e-11
 Primitive cut-off              TCut     ...  2.500e-12


------------------------------ INTEGRAL EVALUATION ----------------------------


 * One electron integrals 
 Pre-screening matrix                    ... done
 Shell pair data                         ... done (   0.002 sec)



           ************************************************************
           *        Program running with 24 parallel MPI-processes    *
           *              working on a common directory               *
           ************************************************************
-------------------------------------------------------------------------------
                                 ORCA SCF
-------------------------------------------------------------------------------

------------
SCF SETTINGS
------------
Hamiltonian:
 Ab initio Hamiltonian  Method          .... Hartree-Fock(GTOs)


General Settings:
 Integral files         IntName         .... 4h2o.temelso.etal-orca.engrad-mp2.augccpvtz
 Hartree-Fock type      HFTyp           .... RHF
 Total Charge           Charge          ....    0
 Multiplicity           Mult            ....    1
 Number of Electrons    NEL             ....   40
 Basis Dimension        Dim             ....  368
 Nuclear Repulsion      ENuc            ....    141.0259404645 Eh

Convergence Acceleration:
 DIIS                   CNVDIIS         .... on
   Start iteration      DIISMaxIt       ....    12
   Startup error        DIISStart       ....  0.200000
   # of expansion vecs  DIISMaxEq       ....     5
   Bias factor          DIISBfac        ....   1.050
   Max. coefficient     DIISMaxC        ....  10.000
 Newton-Raphson         CNVNR           .... off
 SOSCF                  CNVSOSCF        .... on
   Start iteration      SOSCFMaxIt      ....   150
   Startup grad/error   SOSCFStart      ....  0.003300
 Level Shifting         CNVShift        .... on
   Level shift para.    LevelShift      ....    0.2500
   Turn off err/grad.   ShiftErr        ....    0.0010
 Zerner damping         CNVZerner       .... off
 Static damping         CNVDamp         .... on
   Fraction old density DampFac         ....    0.7000
   Max. Damping (<1)    DampMax         ....    0.9800
   Min. Damping (>=0)   DampMin         ....    0.0000
   Turn off err/grad.   DampErr         ....    0.1000
 Fernandez-Rico         CNVRico         .... off

SCF Procedure:
 Maximum # iterations   MaxIter         ....   125
 SCF integral mode      SCFMode         .... Direct
   Integral package                     .... LIBINT
 Reset frequency        DirectResetFreq ....    20
 Integral Threshold     Thresh          ....  2.500e-11 Eh
 Primitive CutOff       TCut            ....  2.500e-12 Eh

Convergence Tolerance:
 Convergence Check Mode ConvCheckMode   .... Total+1el-Energy
 Convergence forced     ConvForced      .... 1
 Energy Change          TolE            ....  1.000e-08 Eh
 1-El. energy change                    ....  1.000e-05 Eh
 Orbital Gradient       TolG            ....  1.000e-05
 Orbital Rotation angle TolX            ....  1.000e-05
 DIIS Error             TolErr          ....  5.000e-07


Diagonalization of the overlap matrix:
Smallest eigenvalue                        ... 1.184e-04
Time for diagonalization                   ...    0.031 sec
Threshold for overlap eigenvalues          ... 1.000e-08
Number of eigenvalues below threshold      ... 0
Time for construction of square roots      ...    0.024 sec
Total time needed                          ...    0.056 sec

-------------------
DFT GRID GENERATION
-------------------

General Integration Accuracy     IntAcc      ...  4.340
Radial Grid Type                 RadialGrid  ... Gauss-Chebyshev
Angular Grid (max. acc.)         AngularGrid ... Lebedev-110
Angular grid pruning method      GridPruning ... 3 (G Style)
Weight generation scheme         WeightScheme... Becke
Basis function cutoff            BFCut       ...    1.0000e-11
Integration weight cutoff        WCut        ...    1.0000e-14
Grids for H and He will be reduced by one unit

# of grid points (after initial pruning)     ...  13216 (   0.0 sec)
# of grid points (after weights+screening)   ...  12604 (   0.0 sec)
nearest neighbour list constructed           ...    0.0 sec
Grid point re-assignment to atoms done       ...    0.0 sec
Grid point division into batches done        ...    0.0 sec
Reduced shell lists constructed in    0.0 sec

Total number of grid points                  ...    12604
Total number of batches                      ...      201
Average number of points per batch           ...       62
Average number of grid points per atom       ...     1050
Average number of shells per batch           ...    88.70 (69.30%)
Average number of basis functions per batch  ...   248.30 (67.47%)
Average number of large shells per batch     ...    73.30 (82.64%)
Average number of large basis fcns per batch ...   200.70 (80.83%)
Maximum spatial batch extension              ...  10.61,  9.39, 14.43 au
Average spatial batch extension              ...   0.16,  0.15,  0.18 au

Time for grid setup =    0.026 sec

------------------------------
INITIAL GUESS: MODEL POTENTIAL
------------------------------
Loading Hartree-Fock densities                     ... done
Calculating cut-offs                               ... done
Setting up the integral package                    ... done
Initializing the effective Hamiltonian             ... done
Starting the Coulomb interaction                   ... done (   0.0 sec)
Reading the grid                                   ... done
Mapping shells                                     ... done
Starting the XC term evaluation                    ... done (   0.0 sec)
Transforming the Hamiltonian                       ... done (   0.0 sec)
Diagonalizing the Hamiltonian                      ... done (   0.0 sec)
Back transforming the eigenvectors                 ... done (   0.0 sec)
Now organizing SCF variables                       ... done
                      ------------------
                      INITIAL GUESS DONE (   0.2 sec)
                      ------------------
--------------
SCF ITERATIONS
--------------
ITER       Energy         Delta-E        Max-DP      RMS-DP      [F,P]     Damp
               ***  Starting incremental Fock matrix formation  ***
  0   -303.9301080719   0.000000000000 0.02880217  0.00051485  0.3563442 0.7000
  1   -304.0619347102  -0.131826638399 0.01711682  0.00036004  0.2120671 0.7000
                               ***Turning on DIIS***
  2   -304.1321390728  -0.070204362505 0.01196350  0.00021163  0.1156991 0.7000
  3   -304.7193812603  -0.587242187577 0.03067382  0.00042742  0.0841082 0.0000
  4   -304.1705796379   0.548801622397 0.00433269  0.00006521  0.0120493 0.0000
                      *** Initiating the SOSCF procedure ***
                           *** Shutting down DIIS ***
                      *** Re-Reading the Fockian *** 
                      *** Removing any level shift *** 
ITER      Energy       Delta-E        Grad      Rot      Max-DP    RMS-DP
  5   -304.26087520  -0.0902955583  0.001231  0.001231  0.001753  0.000031
               *** Restarting incremental Fock matrix formation ***
  6   -304.26812212  -0.0072469263  0.000481  0.000622  0.000969  0.000015
  7   -304.26814196  -0.0000198370  0.000180  0.000472  0.000998  0.000013
  8   -304.26814663  -0.0000046724  0.000111  0.000046  0.000230  0.000003
  9   -304.26814697  -0.0000003392  0.000017  0.000016  0.000017  0.000000
 10   -304.26814699  -0.0000000164  0.000003  0.000004  0.000008  0.000000
                  ***Gradient check signals convergence***
              ***Rediagonalizing the Fockian in SOSCF/NRSCF***

               *****************************************************
               *                     SUCCESS                       *
               *           SCF CONVERGED AFTER  11 CYCLES          *
               *****************************************************


----------------
TOTAL SCF ENERGY
----------------

Total Energy       :         -304.26814699 Eh           -8279.55720 eV

Components:
Nuclear Repulsion  :          141.02594046 Eh            3837.51094 eV
Electronic Energy  :         -445.29408745 Eh          -12117.06814 eV
One Electron Energy:         -700.91709807 Eh          -19072.92389 eV
Two Electron Energy:          255.62301062 Eh            6955.85575 eV

Virial components:
Potential Energy   :         -608.03810823 Eh          -16545.55808 eV
Kinetic Energy     :          303.76996125 Eh            8266.00088 eV
Virial Ratio       :            2.00164001


---------------
SCF CONVERGENCE
---------------

  Last Energy change         ...   -4.1655e-10  Tolerance :   1.0000e-08
  Last MAX-Density change    ...    1.6395e-06  Tolerance :   1.0000e-07
  Last RMS-Density change    ...    3.8684e-08  Tolerance :   5.0000e-09
  Last Orbital Gradient      ...    9.0028e-07  Tolerance :   1.0000e-05
  Last Orbital Rotation      ...    1.4628e-06  Tolerance :   1.0000e-05

             **** THE GBW FILE WAS UPDATED (4h2o.temelso.etal-orca.engrad-mp2.augccpvtz.gbw) ****
             **** DENSITY FILE WAS UPDATED (4h2o.temelso.etal-orca.engrad-mp2.augccpvtz.scfp) ****
             **** ENERGY FILE WAS UPDATED (4h2o.temelso.etal-orca.engrad-mp2.augccpvtz.en.tmp) ****
             **** THE GBW FILE WAS UPDATED (4h2o.temelso.etal-orca.engrad-mp2.augccpvtz.gbw) ****
             **** DENSITY FILE WAS UPDATED (4h2o.temelso.etal-orca.engrad-mp2.augccpvtz.scfp) ****
----------------
ORBITAL ENERGIES
----------------

  NO   OCC          E(Eh)            E(eV) 
   0   2.0000     -20.559358      -559.4486 
   1   2.0000     -20.559352      -559.4484 
   2   2.0000     -20.559341      -559.4481 
   3   2.0000     -20.559334      -559.4479 
   4   2.0000      -1.359642       -36.9977 
   5   2.0000      -1.344202       -36.5776 
   6   2.0000      -1.344189       -36.5772 
   7   2.0000      -1.329043       -36.1651 
   8   2.0000      -0.727462       -19.7953 
   9   2.0000      -0.713291       -19.4096 
  10   2.0000      -0.713247       -19.4084 
  11   2.0000      -0.704146       -19.1608 
  12   2.0000      -0.623249       -16.9595 
  13   2.0000      -0.586072       -15.9478 
  14   2.0000      -0.586059       -15.9475 
  15   2.0000      -0.549869       -14.9627 
  16   2.0000      -0.505396       -13.7525 
  17   2.0000      -0.504293       -13.7225 
  18   2.0000      -0.504282       -13.7222 
  19   2.0000      -0.503727       -13.7071 
  20   0.0000       0.027599         0.7510 
  21   0.0000       0.042576         1.1585 
  22   0.0000       0.042578         1.1586 
  23   0.0000       0.047856         1.3022 
  24   0.0000       0.066630         1.8131 
  25   0.0000       0.080040         2.1780 
  26   0.0000       0.080048         2.1782 
  27   0.0000       0.087059         2.3690 
  28   0.0000       0.115580         3.1451 
  29   0.0000       0.151702         4.1280 
  30   0.0000       0.158008         4.2996 
  31   0.0000       0.158014         4.2998 
  32   0.0000       0.171284         4.6609 
  33   0.0000       0.176757         4.8098 
  34   0.0000       0.176768         4.8101 
  35   0.0000       0.183435         4.9915 
  36   0.0000       0.208307         5.6683 
  37   0.0000       0.209415         5.6985 
  38   0.0000       0.209419         5.6986 
  39   0.0000       0.226770         6.1707 
  40   0.0000       0.234070         6.3694 
  41   0.0000       0.236048         6.4232 
  42   0.0000       0.245088         6.6692 
  43   0.0000       0.245115         6.6699 
  44   0.0000       0.269362         7.3297 
  45   0.0000       0.291643         7.9360 
  46   0.0000       0.291646         7.9361 
  47   0.0000       0.295536         8.0419 
  48   0.0000       0.305888         8.3236 
  49   0.0000       0.337843         9.1932 
  50   0.0000       0.360173         9.8008 
  51   0.0000       0.360187         9.8012 
  52   0.0000       0.375399        10.2151 
  53   0.0000       0.382161        10.3991 
  54   0.0000       0.382174        10.3995 
  55   0.0000       0.389997        10.6124 
  56   0.0000       0.397987        10.8298 
  57   0.0000       0.406734        11.0678 
  58   0.0000       0.426223        11.5981 
  59   0.0000       0.431603        11.7445 
  60   0.0000       0.431610        11.7447 
  61   0.0000       0.442643        12.0449 
  62   0.0000       0.442654        12.0452 
  63   0.0000       0.443436        12.0665 
  64   0.0000       0.466520        12.6947 
  65   0.0000       0.473872        12.8947 
  66   0.0000       0.473893        12.8953 
  67   0.0000       0.483202        13.1486 
  68   0.0000       0.485470        13.2103 
  69   0.0000       0.492047        13.3893 
  70   0.0000       0.521994        14.2042 
  71   0.0000       0.522022        14.2049 
  72   0.0000       0.567915        15.4538 
  73   0.0000       0.567945        15.4546 
  74   0.0000       0.573234        15.5985 
  75   0.0000       0.594605        16.1800 
  76   0.0000       0.607704        16.5365 
  77   0.0000       0.661634        18.0040 
  78   0.0000       0.661654        18.0045 
  79   0.0000       0.662901        18.0384 
  80   0.0000       0.665294        18.1036 
  81   0.0000       0.696652        18.9569 
  82   0.0000       0.753912        20.5150 
  83   0.0000       0.753969        20.5165 
  84   0.0000       0.771390        20.9906 
  85   0.0000       0.800731        21.7890 
  86   0.0000       0.800768        21.7900 
  87   0.0000       0.802802        21.8454 
  88   0.0000       0.802829        21.8461 
  89   0.0000       0.814728        22.1699 
  90   0.0000       0.827271        22.5112 
  91   0.0000       0.827314        22.5124 
  92   0.0000       0.836058        22.7503 
  93   0.0000       0.863099        23.4861 
  94   0.0000       0.876560        23.8524 
  95   0.0000       0.876604        23.8536 
  96   0.0000       0.889736        24.2109 
  97   0.0000       0.896451        24.3937 
  98   0.0000       0.896488        24.3947 
  99   0.0000       0.933428        25.3999 
 100   0.0000       0.941340        25.6152 
 101   0.0000       0.941351        25.6155 
 102   0.0000       0.948841        25.8193 
 103   0.0000       0.962129        26.1809 
 104   0.0000       0.977230        26.5918 
 105   0.0000       0.983559        26.7640 
 106   0.0000       0.983608        26.7653 
 107   0.0000       0.995491        27.0887 
 108   0.0000       0.996375        27.1128 
 109   0.0000       0.996417        27.1139 
 110   0.0000       0.999093        27.1867 
 111   0.0000       1.014785        27.6137 
 112   0.0000       1.042931        28.3796 
 113   0.0000       1.046045        28.4643 
 114   0.0000       1.053987        28.6804 
 115   0.0000       1.053997        28.6807 
 116   0.0000       1.081579        29.4313 
 117   0.0000       1.081639        29.4329 
 118   0.0000       1.114806        30.3354 
 119   0.0000       1.114829        30.3360 
 120   0.0000       1.160880        31.5891 
 121   0.0000       1.168481        31.7960 
 122   0.0000       1.168502        31.7965 
 123   0.0000       1.174057        31.9477 
 124   0.0000       1.177903        32.0524 
 125   0.0000       1.190446        32.3937 
 126   0.0000       1.227667        33.4065 
 127   0.0000       1.227699        33.4074 
 128   0.0000       1.241729        33.7892 
 129   0.0000       1.241784        33.7907 
 130   0.0000       1.241887        33.7935 
 131   0.0000       1.277098        34.7516 
 132   0.0000       1.296860        35.2894 
 133   0.0000       1.297464        35.3058 
 134   0.0000       1.300789        35.3963 
 135   0.0000       1.300851        35.3980 
 136   0.0000       1.311846        35.6971 
 137   0.0000       1.382963        37.6323 
 138   0.0000       1.383028        37.6341 
 139   0.0000       1.405227        38.2382 
 140   0.0000       1.406246        38.2659 
 141   0.0000       1.412750        38.4429 
 142   0.0000       1.412845        38.4455 
 143   0.0000       1.439406        39.1682 
 144   0.0000       1.492915        40.6243 
 145   0.0000       1.506752        41.0008 
 146   0.0000       1.520730        41.3812 
 147   0.0000       1.520802        41.3831 
 148   0.0000       1.549908        42.1751 
 149   0.0000       1.549917        42.1754 
 150   0.0000       1.551358        42.2146 
 151   0.0000       1.579388        42.9773 
 152   0.0000       1.598283        43.4915 
 153   0.0000       1.643910        44.7331 
 154   0.0000       1.644042        44.7366 
 155   0.0000       1.652955        44.9792 
 156   0.0000       1.690527        46.0016 
 157   0.0000       1.706907        46.4473 
 158   0.0000       1.717511        46.7358 
 159   0.0000       1.753676        47.7200 
 160   0.0000       1.753769        47.7225 
 161   0.0000       1.781592        48.4796 
 162   0.0000       1.794493        48.8306 
 163   0.0000       1.794563        48.8325 
 164   0.0000       1.799582        48.9691 
 165   0.0000       1.832368        49.8613 
 166   0.0000       1.834438        49.9176 
 167   0.0000       1.834597        49.9219 
 168   0.0000       1.873183        50.9719 
 169   0.0000       1.987136        54.0727 
 170   0.0000       1.992914        54.2299 
 171   0.0000       2.002680        54.4957 
 172   0.0000       2.002796        54.4989 
 173   0.0000       2.028694        55.2036 
 174   0.0000       2.028739        55.2048 
 175   0.0000       2.039786        55.5054 
 176   0.0000       2.094593        56.9968 
 177   0.0000       2.173047        59.1316 
 178   0.0000       2.173123        59.1337 
 179   0.0000       2.261716        61.5444 
 180   0.0000       2.291034        62.3422 
 181   0.0000       2.389208        65.0137 
 182   0.0000       2.389247        65.0147 
 183   0.0000       2.404579        65.4319 
 184   0.0000       2.411350        65.6162 
 185   0.0000       2.430443        66.1357 
 186   0.0000       2.430519        66.1378 
 187   0.0000       2.450789        66.6894 
 188   0.0000       2.477268        67.4099 
 189   0.0000       2.477296        67.4106 
 190   0.0000       2.487992        67.7017 
 191   0.0000       2.502924        68.1080 
 192   0.0000       2.551919        69.4412 
 193   0.0000       2.552003        69.4435 
 194   0.0000       2.556270        69.5596 
 195   0.0000       2.560014        69.6615 
 196   0.0000       2.585526        70.3557 
 197   0.0000       2.585577        70.3571 
 198   0.0000       2.590586        70.4934 
 199   0.0000       2.602646        70.8216 
 200   0.0000       2.629219        71.5447 
 201   0.0000       2.667291        72.5807 
 202   0.0000       2.673660        72.7540 
 203   0.0000       2.673700        72.7551 
 204   0.0000       2.721229        74.0484 
 205   0.0000       2.767371        75.3040 
 206   0.0000       2.785497        75.7972 
 207   0.0000       2.785607        75.8002 
 208   0.0000       2.818781        76.7029 
 209   0.0000       2.839063        77.2548 
 210   0.0000       2.839091        77.2556 
 211   0.0000       2.845313        77.4249 
 212   0.0000       2.899493        78.8992 
 213   0.0000       2.900031        78.9139 
 214   0.0000       2.911192        79.2176 
 215   0.0000       2.911259        79.2194 
 216   0.0000       2.911335        79.2214 
 217   0.0000       2.929241        79.7087 
 218   0.0000       2.958551        80.5063 
 219   0.0000       2.995100        81.5008 
 220   0.0000       2.995162        81.5025 
 221   0.0000       3.070189        83.5441 
 222   0.0000       3.083409        83.9038 
 223   0.0000       3.083652        83.9104 
 224   0.0000       3.097819        84.2959 
 225   0.0000       3.113997        84.7362 
 226   0.0000       3.142046        85.4994 
 227   0.0000       3.142190        85.5033 
 228   0.0000       3.224152        87.7336 
 229   0.0000       3.255009        88.5733 
 230   0.0000       3.255192        88.5783 
 231   0.0000       3.293758        89.6277 
 232   0.0000       3.882508       105.6484 
 233   0.0000       3.908880       106.3660 
 234   0.0000       3.908946       106.3678 
 235   0.0000       3.932253       107.0020 
 236   0.0000       4.041032       109.9621 
 237   0.0000       4.114264       111.9548 
 238   0.0000       4.114302       111.9559 
 239   0.0000       4.149652       112.9178 
 240   0.0000       4.156392       113.1012 
 241   0.0000       4.167311       113.3983 
 242   0.0000       4.167390       113.4004 
 243   0.0000       4.207120       114.4816 
 244   0.0000       4.251187       115.6807 
 245   0.0000       4.251296       115.6836 
 246   0.0000       4.264622       116.0463 
 247   0.0000       4.280382       116.4751 
 248   0.0000       4.287701       116.6743 
 249   0.0000       4.287781       116.6765 
 250   0.0000       4.318466       117.5114 
 251   0.0000       4.332607       117.8962 
 252   0.0000       4.384993       119.3217 
 253   0.0000       4.404746       119.8592 
 254   0.0000       4.404933       119.8643 
 255   0.0000       4.409755       119.9955 
 256   0.0000       4.433036       120.6290 
 257   0.0000       4.520261       123.0026 
 258   0.0000       4.522141       123.0537 
 259   0.0000       4.522191       123.0551 
 260   0.0000       4.545733       123.6957 
 261   0.0000       4.565084       124.2223 
 262   0.0000       4.565117       124.2232 
 263   0.0000       4.577829       124.5691 
 264   0.0000       4.627835       125.9298 
 265   0.0000       4.628321       125.9430 
 266   0.0000       4.629597       125.9777 
 267   0.0000       4.629659       125.9794 
 268   0.0000       4.701598       127.9370 
 269   0.0000       4.714648       128.2921 
 270   0.0000       4.732011       128.7646 
 271   0.0000       4.732226       128.7704 
 272   0.0000       4.752148       129.3125 
 273   0.0000       4.752234       129.3149 
 274   0.0000       4.783736       130.1721 
 275   0.0000       4.792121       130.4002 
 276   0.0000       4.911371       133.6452 
 277   0.0000       4.911478       133.6481 
 278   0.0000       4.933037       134.2348 
 279   0.0000       4.991936       135.8375 
 280   0.0000       5.047274       137.3433 
 281   0.0000       5.065667       137.8438 
 282   0.0000       5.086686       138.4158 
 283   0.0000       5.086797       138.4188 
 284   0.0000       5.152281       140.2007 
 285   0.0000       5.166693       140.5929 
 286   0.0000       5.183121       141.0399 
 287   0.0000       5.183127       141.0401 
 288   0.0000       5.293384       144.0403 
 289   0.0000       5.300911       144.2451 
 290   0.0000       5.300955       144.2463 
 291   0.0000       5.307392       144.4215 
 292   0.0000       5.357835       145.7941 
 293   0.0000       5.357922       145.7965 
 294   0.0000       5.359981       145.8525 
 295   0.0000       5.376271       146.2958 
 296   0.0000       5.413296       147.3033 
 297   0.0000       5.515336       150.0799 
 298   0.0000       5.515355       150.0804 
 299   0.0000       5.576699       151.7497 
 300   0.0000       5.584168       151.9529 
 301   0.0000       5.706501       155.2818 
 302   0.0000       5.706749       155.2885 
 303   0.0000       5.776551       157.1879 
 304   0.0000       5.844658       159.0412 
 305   0.0000       5.844794       159.0449 
 306   0.0000       5.882101       160.0601 
 307   0.0000       5.908197       160.7702 
 308   0.0000       6.388502       173.8400 
 309   0.0000       6.420749       174.7175 
 310   0.0000       6.420911       174.7219 
 311   0.0000       6.439688       175.2328 
 312   0.0000       6.565016       178.6432 
 313   0.0000       6.593128       179.4081 
 314   0.0000       6.593170       179.4093 
 315   0.0000       6.629775       180.4054 
 316   0.0000       6.874827       187.0736 
 317   0.0000       6.897776       187.6980 
 318   0.0000       6.899314       187.7399 
 319   0.0000       6.899400       187.7422 
 320   0.0000       6.992559       190.2772 
 321   0.0000       7.025045       191.1612 
 322   0.0000       7.025108       191.1629 
 323   0.0000       7.029727       191.2886 
 324   0.0000       7.176214       195.2747 
 325   0.0000       7.214463       196.3155 
 326   0.0000       7.214502       196.3166 
 327   0.0000       7.225840       196.6251 
 328   0.0000       7.274259       197.9426 
 329   0.0000       7.325254       199.3303 
 330   0.0000       7.364849       200.4077 
 331   0.0000       7.364996       200.4117 
 332   0.0000       7.391661       201.1373 
 333   0.0000       7.417096       201.8295 
 334   0.0000       7.428296       202.1342 
 335   0.0000       7.428466       202.1388 
 336   0.0000       7.434182       202.2944 
 337   0.0000       7.472932       203.3488 
 338   0.0000       7.473029       203.3514 
 339   0.0000       7.483852       203.6460 
 340   0.0000       7.516846       204.5438 
 341   0.0000       7.523762       204.7320 
 342   0.0000       7.523801       204.7330 
 343   0.0000       7.561014       205.7456 
 344   0.0000       7.599796       206.8010 
 345   0.0000       7.599920       206.8043 
 346   0.0000       7.604084       206.9176 
 347   0.0000       7.673382       208.8033 
 348   0.0000       7.829684       213.0565 
 349   0.0000       7.913161       215.3281 
 350   0.0000       7.959161       216.5798 
 351   0.0000       7.959319       216.5841 
 352   0.0000       8.028217       218.4589 
 353   0.0000       8.038252       218.7320 
 354   0.0000       8.038284       218.7328 
 355   0.0000       8.061100       219.3537 
 356   0.0000       8.110885       220.7084 
 357   0.0000       8.126489       221.1330 
 358   0.0000       8.126654       221.1375 
 359   0.0000       8.242112       224.2793 
 360   0.0000       8.966577       243.9930 
 361   0.0000       8.986257       244.5285 
 362   0.0000       8.986422       244.5330 
 363   0.0000       9.053282       246.3523 
 364   0.0000      16.063289       437.1043 
 365   0.0000      17.022366       463.2021 
 366   0.0000      17.023682       463.2379 
 367   0.0000      17.638030       479.9552 

                    ********************************
                    * MULLIKEN POPULATION ANALYSIS *
                    ********************************

-----------------------
MULLIKEN ATOMIC CHARGES
-----------------------
   0 O :   -0.507686
   1 H :    0.180595
   2 H :    0.327097
   3 O :   -0.507809
   4 H :    0.327147
   5 H :    0.180652
   6 O :   -0.507832
   7 H :    0.327154
   8 H :    0.180664
   9 O :   -0.507853
  10 H :    0.327115
  11 H :    0.180757
Sum of atomic charges:   -0.0000000

--------------------------------
MULLIKEN REDUCED ORBITAL CHARGES
--------------------------------
  0 O s       :     3.886505  s :     3.886505
      pz      :     1.437456  p :     4.604710
      px      :     1.738166
      py      :     1.429088
      dz2     :     0.004276  d :     0.015872
      dxz     :     0.003620
      dyz     :     0.000648
      dx2y2   :     0.005569
      dxy     :     0.001759
      f0      :    -0.000026  f :     0.000599
      f+1     :     0.000429
      f-1     :     0.000002
      f+2     :     0.000106
      f-2     :     0.000046
      f+3     :    -0.000064
      f-3     :     0.000106
  1 H s       :     0.693129  s :     0.693129
      pz      :     0.025004  p :     0.107381
      px      :     0.046380
      py      :     0.035997
      dz2     :     0.005547  d :     0.018896
      dxz     :     0.004986
      dyz     :     0.004091
      dx2y2   :     0.002744
      dxy     :     0.001527
  2 H s       :     0.558451  s :     0.558451
      pz      :     0.033622  p :     0.066476
      px      :     0.043212
      py      :    -0.010357
      dz2     :     0.002596  d :     0.047976
      dxz     :     0.000716
      dyz     :     0.016253
      dx2y2   :     0.007232
      dxy     :     0.021178
  3 O s       :     3.886508  s :     3.886508
      pz      :     1.560128  p :     4.604821
      px      :     1.434794
      py      :     1.609899
      dz2     :     0.002935  d :     0.015880
      dxz     :     0.000622
      dyz     :     0.003033
      dx2y2   :     0.007326
      dxy     :     0.001964
      f0      :     0.000119  f :     0.000599
      f+1     :     0.000099
      f-1     :     0.000179
      f+2     :     0.000244
      f-2     :     0.000044
      f+3     :    -0.000003
      f-3     :    -0.000081
  4 H s       :     0.558415  s :     0.558415
      pz      :     0.040503  p :     0.066463
      px      :    -0.010620
      py      :     0.036580
      dz2     :     0.003549  d :     0.047975
      dxz     :     0.016791
      dyz     :     0.000987
      dx2y2   :     0.007061
      dxy     :     0.019588
  5 H s       :     0.693097  s :     0.693097
      pz      :     0.031192  p :     0.107359
      px      :     0.036201
      py      :     0.039966
      dz2     :     0.007790  d :     0.018892
      dxz     :     0.003062
      dyz     :     0.001269
      dx2y2   :     0.004133
      dxy     :     0.002639
  6 O s       :     3.886514  s :     3.886514
      pz      :     1.644306  p :     4.604841
      px      :     1.603697
      py      :     1.356839
      dz2     :     0.002392  d :     0.015878
      dxz     :     0.002412
      dyz     :     0.002449
      dx2y2   :     0.005947
      dxy     :     0.002678
      f0      :     0.000152  f :     0.000600
      f+1     :     0.000071
      f-1     :     0.000131
      f+2     :     0.000138
      f-2     :     0.000206
      f+3     :    -0.000138
      f-3     :     0.000041
  7 H s       :     0.558386  s :     0.558386
      pz      :     0.035423  p :     0.066506
      px      :     0.036356
      py      :    -0.005272
      dz2     :     0.002459  d :     0.047953
      dxz     :    -0.000015
      dyz     :     0.017835
      dx2y2   :     0.007822
      dxy     :     0.019853
  8 H s       :     0.693065  s :     0.693065
      pz      :     0.032586  p :     0.107379
      px      :     0.039382
      py      :     0.035411
      dz2     :     0.007287  d :     0.018892
      dxz     :     0.001445
      dyz     :     0.001807
      dx2y2   :     0.005887
      dxy     :     0.002466
  9 O s       :     3.886540  s :     3.886540
      pz      :     1.523903  p :     4.604826
      px      :     1.350194
      py      :     1.730729
      dz2     :     0.002672  d :     0.015887
      dxz     :     0.003808
      dyz     :     0.003431
      dx2y2   :     0.004045
      dxy     :     0.001931
      f0      :     0.000038  f :     0.000600
      f+1     :     0.000003
      f-1     :     0.000258
      f+2     :     0.000014
      f-2     :     0.000256
      f+3     :     0.000153
      f-3     :    -0.000121
 10 H s       :     0.558458  s :     0.558458
      pz      :     0.028984  p :     0.066452
      px      :    -0.005093
      py      :     0.042561
      dz2     :     0.003161  d :     0.047975
      dxz     :     0.014485
      dyz     :     0.000078
      dx2y2   :     0.007927
      dxy     :     0.022323
 11 H s       :     0.693014  s :     0.693014
      pz      :     0.025803  p :     0.107344
      px      :     0.035361
      py      :     0.046179
      dz2     :     0.006784  d :     0.018886
      dxz     :     0.001616
      dyz     :     0.003557
      dx2y2   :     0.004308
      dxy     :     0.002621


                     *******************************
                     * LOEWDIN POPULATION ANALYSIS *
                     *******************************

----------------------
LOEWDIN ATOMIC CHARGES
----------------------
   0 O :    1.098561
   1 H :   -0.449035
   2 H :   -0.649540
   3 O :    1.098453
   4 H :   -0.649424
   5 H :   -0.449013
   6 O :    1.098413
   7 H :   -0.649477
   8 H :   -0.448978
   9 O :    1.098397
  10 H :   -0.649525
  11 H :   -0.448833

-------------------------------
LOEWDIN REDUCED ORBITAL CHARGES
-------------------------------
  0 O s       :     2.955402  s :     2.955402
      pz      :     1.253797  p :     3.831031
      px      :     1.335893
      py      :     1.241341
      dz2     :     0.027055  d :     0.097433
      dxz     :     0.017192
      dyz     :     0.009227
      dx2y2   :     0.037035
      dxy     :     0.006925
      f0      :     0.001626  f :     0.017573
      f+1     :     0.005392
      f-1     :     0.002545
      f+2     :     0.001003
      f-2     :     0.000893
      f+3     :     0.002671
      f-3     :     0.003443
  1 H s       :     0.578348  s :     0.578348
      pz      :     0.224724  p :     0.519947
      px      :     0.162622
      py      :     0.132601
      dz2     :     0.113779  d :     0.350740
      dxz     :     0.091638
      dyz     :     0.091057
      dx2y2   :     0.031460
      dxy     :     0.022806
  2 H s       :     0.530271  s :     0.530271
      pz      :     0.133152  p :     0.609169
      px      :     0.138299
      py      :     0.337718
      dz2     :     0.056107  d :     0.510100
      dxz     :     0.004515
      dyz     :     0.152178
      dx2y2   :     0.156260
      dxy     :     0.141039
  3 O s       :     2.955454  s :     2.955454
      pz      :     1.295692  p :     3.831087
      px      :     1.244169
      py      :     1.291226
      dz2     :     0.013707  d :     0.097432
      dxz     :     0.008754
      dyz     :     0.025661
      dx2y2   :     0.041191
      dxy     :     0.008119
      f0      :     0.000795  f :     0.017574
      f+1     :     0.001644
      f-1     :     0.004417
      f+2     :     0.003099
      f-2     :     0.001148
      f+3     :     0.003715
      f-3     :     0.002757
  4 H s       :     0.530237  s :     0.530237
      pz      :     0.139840  p :     0.609110
      px      :     0.336435
      py      :     0.132835
      dz2     :     0.059469  d :     0.510077
      dxz     :     0.147938
      dyz     :     0.008339
      dx2y2   :     0.151889
      dxy     :     0.142441
  5 H s       :     0.578340  s :     0.578340
      pz      :     0.204311  p :     0.519933
      px      :     0.132894
      py      :     0.182727
      dz2     :     0.095327  d :     0.350740
      dxz     :     0.065712
      dyz     :     0.085681
      dx2y2   :     0.055544
      dxy     :     0.048477
  6 O s       :     2.955461  s :     2.955461
      pz      :     1.342004  p :     3.831125
      px      :     1.289826
      py      :     1.199294
      dz2     :     0.012771  d :     0.097428
      dxz     :     0.018486
      dyz     :     0.010605
      dx2y2   :     0.039350
      dxy     :     0.016216
      f0      :     0.000957  f :     0.017573
      f+1     :     0.002260
      f-1     :     0.001963
      f+2     :     0.002040
      f-2     :     0.003484
      f+3     :     0.002697
      f-3     :     0.004171
  7 H s       :     0.530250  s :     0.530250
      pz      :     0.144688  p :     0.609140
      px      :     0.133357
      py      :     0.331095
      dz2     :     0.050381  d :     0.510087
      dxz     :     0.003165
      dyz     :     0.160895
      dx2y2   :     0.147778
      dxy     :     0.147868
  8 H s       :     0.578334  s :     0.578334
      pz      :     0.196625  p :     0.519910
      px      :     0.183429
      py      :     0.139856
      dz2     :     0.085622  d :     0.350733
      dxz     :     0.078140
      dyz     :     0.053378
      dx2y2   :     0.077100
      dxy     :     0.056494
  9 O s       :     2.955484  s :     2.955484
      pz      :     1.302446  p :     3.831114
      px      :     1.195650
      py      :     1.333019
      dz2     :     0.017671  d :     0.097429
      dxz     :     0.018369
      dyz     :     0.013945
      dx2y2   :     0.036733
      dxy     :     0.010711
      f0      :     0.000704  f :     0.017575
      f+1     :     0.003216
      f-1     :     0.003448
      f+2     :     0.001340
      f-2     :     0.002957
      f+3     :     0.003375
      f-3     :     0.002535
 10 H s       :     0.530268  s :     0.530268
      pz      :     0.142956  p :     0.609158
      px      :     0.328840
      py      :     0.137362
      dz2     :     0.049725  d :     0.510099
      dxz     :     0.165078
      dyz     :     0.004060
      dx2y2   :     0.149041
      dxy     :     0.142194
 11 H s       :     0.578300  s :     0.578300
      pz      :     0.214229  p :     0.519824
      px      :     0.141526
      py      :     0.164069
      dz2     :     0.108064  d :     0.350709
      dxz     :     0.072251
      dyz     :     0.077347
      dx2y2   :     0.054869
      dxy     :     0.038178


                      *****************************
                      * MAYER POPULATION ANALYSIS *
                      *****************************

  NA   - Mulliken gross atomic population
  ZA   - Total nuclear charge
  QA   - Mulliken gross atomic charge
  VA   - Mayer's total valence
  BVA  - Mayer's bonded valence
  FA   - Mayer's free valence

  ATOM       NA         ZA         QA         VA         BVA        FA
  0 O      8.5077     8.0000    -0.5077     1.8697     1.8697     0.0000
  1 H      0.8194     1.0000     0.1806     1.0847     1.0847     0.0000
  2 H      0.6729     1.0000     0.3271     0.9482     0.9482    -0.0000
  3 O      8.5078     8.0000    -0.5078     1.8695     1.8695    -0.0000
  4 H      0.6729     1.0000     0.3271     0.9482     0.9482     0.0000
  5 H      0.8193     1.0000     0.1807     1.0846     1.0846    -0.0000
  6 O      8.5078     8.0000    -0.5078     1.8694     1.8694    -0.0000
  7 H      0.6728     1.0000     0.3272     0.9482     0.9482     0.0000
  8 H      0.8193     1.0000     0.1807     1.0847     1.0847    -0.0000
  9 O      8.5079     8.0000    -0.5079     1.8695     1.8695    -0.0000
 10 H      0.6729     1.0000     0.3271     0.9482     0.9482    -0.0000
 11 H      0.8192     1.0000     0.1808     1.0846     1.0846    -0.0000

  Mayer bond orders larger than 0.100000
B(  0-O ,  1-H ) :   1.0458 B(  0-O ,  2-H ) :   0.8594 B(  3-O ,  4-H ) :   0.8593 
B(  3-O ,  5-H ) :   1.0457 B(  6-O ,  7-H ) :   0.8593 B(  6-O ,  8-H ) :   1.0457 
B(  9-O , 10-H ) :   0.8594 B(  9-O , 11-H ) :   1.0457 

-------
TIMINGS
-------

Total SCF time: 0 days 0 hours 0 min 22 sec 

Total time                  ....      22.700 sec
Sum of individual times     ....      22.374 sec  ( 98.6%)

Fock matrix formation       ....      21.231 sec  ( 93.5%)
Diagonalization             ....       0.379 sec  (  1.7%)
Density matrix formation    ....       0.021 sec  (  0.1%)
Population analysis         ....       0.049 sec  (  0.2%)
Initial guess               ....       0.156 sec  (  0.7%)
Orbital Transformation      ....       0.000 sec  (  0.0%)
Orbital Orthonormalization  ....       0.000 sec  (  0.0%)
DIIS solution               ....       0.157 sec  (  0.7%)
SOSCF solution              ....       0.355 sec  (  1.6%)


           ************************************************************
           *        Program running with 24 parallel MPI-processes    *
           *              working on a common directory               *
           ************************************************************

------------------------------------------------------------------------------
                                ORCA  MP2 
------------------------------------------------------------------------------

Freezing NCore=8 chemical core electrons
MP2 will be done in the AO integral direct mode
The Q1-step will be done using symmetric double matrices
Dimension of the basis                    ...  368
Memory devoted for MP2                    ... 8000 MB   
Memory needed for all in one shot         ...  192 MB
Number of MOs that can be treated together...   40      
MP2 density construction                  ... relaxed
The MP2 gradient is requested => amplitudes will be stored on disk
Total number of MOs              ...   16
Number of MOs treated per batch  ...    1 
Number of batches necessary      ...    1 
OPERATORS   0/  0 PASS   0
-----------------------------------------------
 MP2 CORRELATION ENERGY   :     -1.093140552 Eh
-----------------------------------------------


---------------------
MP2 DENSITY FORMATION
---------------------

Completing the external part of the density      ... done
Storing the unrelaxed density                    ... done

Calculating G(D)                                 ... done
Completing the Lagrangian                        ... done
Solving the Z-vector equations                   ... 

------------------------------------------------------------------------------
                           ORCA CP-SCF CALCULATION
------------------------------------------------------------------------------

Input orbitals are from        ... 4h2o.temelso.etal-orca.engrad-mp2.augccpvtz.gbw
Input Perturbation             ... 4h2o.temelso.etal-orca.engrad-mp2.augccpvtz.pin.tmp
Wavefunction output            ... 4h2o.temelso.etal-orca.engrad-mp2.augccpvtz.pout.tmp
Perturbation mode              ... Real perturbation (singlet)
Solver                         ... POPLE
Max. number of iterations      ... 128
Convergence tolerance          ... 1.000e-08
Integral handling              ... Direct
Number of perturbations        ... 1
Number of operators            ... 1
Orbital ranges used for CP-SCF:
 Operator 0:  Orbitals   0... 19  to  20...367
Variables per vector in CP-SCF ... 6960
Number of vectors sought       ... 1
     CP-SCF ITERATION   0: 
     CP-SCF ITERATION   1:      0.000210901777
     CP-SCF ITERATION   2:      0.000021913623
     CP-SCF ITERATION   3:      0.000000434308
     CP-SCF ITERATION   4:      0.000000027261
     CP-SCF ITERATION   5:      0.000000001472
                                                 ... done
Finalizing the relaxed density                   ... done
Transforming P to the AO basis                   ... done
Storing the relaxed density                      ... done

------------------------------------
ENERGY WEIGHTED DENSITY FINALIZATION
------------------------------------

Gathering the parts of the W-matrix              ...                                                      done
Forming the Z-density                            ... done
Transforming Z to the AO basis                   ... done
Calculating G(Z)                                 ... done
Finalizing the W-matrix                          ...                                                      done
Transforming W to the AO basis and storing       ... done

                *********************************************
                * UNRELAXED MP2 DENSITY POPULATION ANALYSIS *
                *********************************************

------------------------------------------------------------------------------
                           ORCA POPULATION ANALYSIS
------------------------------------------------------------------------------
Input electron density              ... 4h2o.temelso.etal-orca.engrad-mp2.augccpvtz.pmp2ur
BaseName (.gbw .S,...)              ... 4h2o.temelso.etal-orca.engrad-mp2.augccpvtz

                    ********************************
                    * MULLIKEN POPULATION ANALYSIS *
                    ********************************

-----------------------
MULLIKEN ATOMIC CHARGES
-----------------------
   0 O :   -0.495318
   1 H :    0.174696
   2 H :    0.320628
   3 O :   -0.495439
   4 H :    0.320676
   5 H :    0.174752
   6 O :   -0.495463
   7 H :    0.320685
   8 H :    0.174765
   9 O :   -0.495483
  10 H :    0.320645
  11 H :    0.174856
Sum of atomic charges:   -0.0000000

--------------------------------
MULLIKEN REDUCED ORBITAL CHARGES
--------------------------------
  0 O s       :     3.880893  s :     3.880893
      pz      :     1.424934  p :     4.563885
      px      :     1.723828
      py      :     1.415123
      dz2     :     0.009696  d :     0.045891
      dxz     :     0.009524
      dyz     :     0.007035
      dx2y2   :     0.011464
      dxy     :     0.008171
      f0      :     0.000550  f :     0.004649
      f+1     :     0.000996
      f-1     :     0.000575
      f+2     :     0.000677
      f-2     :     0.000611
      f+3     :     0.000533
      f-3     :     0.000707
  1 H s       :     0.698880  s :     0.698880
      pz      :     0.023227  p :     0.107613
      px      :     0.047351
      py      :     0.037035
      dz2     :     0.005449  d :     0.018811
      dxz     :     0.004855
      dyz     :     0.004063
      dx2y2   :     0.002819
      dxy     :     0.001625
  2 H s       :     0.566226  s :     0.566226
      pz      :     0.034939  p :     0.065715
      px      :     0.044552
      py      :    -0.013775
      dz2     :     0.002516  d :     0.047431
      dxz     :     0.000899
      dyz     :     0.016202
      dx2y2   :     0.006556
      dxy     :     0.021257
  3 O s       :     3.880896  s :     3.880896
      pz      :     1.546573  p :     4.563995
      px      :     1.420763
      py      :     1.596658
      dz2     :     0.008962  d :     0.045899
      dxz     :     0.007056
      dyz     :     0.008563
      dx2y2   :     0.012998
      dxy     :     0.008321
      f0      :     0.000684  f :     0.004650
      f+1     :     0.000652
      f-1     :     0.000752
      f+2     :     0.000813
      f-2     :     0.000611
      f+3     :     0.000613
      f-3     :     0.000523
  4 H s       :     0.566193  s :     0.566193
      pz      :     0.041999  p :     0.065701
      px      :    -0.013994
      py      :     0.037695
      dz2     :     0.003504  d :     0.047430
      dxz     :     0.016709
      dyz     :     0.001155
      dx2y2   :     0.006389
      dxy     :     0.019673
  5 H s       :     0.698849  s :     0.698849
      pz      :     0.030501  p :     0.107591
      px      :     0.037263
      py      :     0.039828
      dz2     :     0.007783  d :     0.018808
      dxz     :     0.003077
      dyz     :     0.001103
      dx2y2   :     0.004151
      dxy     :     0.002693
  6 O s       :     3.880902  s :     3.880902
      pz      :     1.629190  p :     4.564015
      px      :     1.590453
      py      :     1.344371
      dz2     :     0.008598  d :     0.045897
      dxz     :     0.008088
      dyz     :     0.008539
      dx2y2   :     0.011818
      dxy     :     0.008854
      f0      :     0.000713  f :     0.004650
      f+1     :     0.000651
      f-1     :     0.000691
      f+2     :     0.000712
      f-2     :     0.000781
      f+3     :     0.000453
      f-3     :     0.000649
  7 H s       :     0.566163  s :     0.566163
      pz      :     0.036763  p :     0.065744
      px      :     0.037421
      py      :    -0.008440
      dz2     :     0.002365  d :     0.047408
      dxz     :     0.000157
      dyz     :     0.017835
      dx2y2   :     0.007131
      dxy     :     0.019921
  8 H s       :     0.698817  s :     0.698817
      pz      :     0.032610  p :     0.107610
      px      :     0.039200
      py      :     0.035800
      dz2     :     0.007302  d :     0.018808
      dxz     :     0.001339
      dyz     :     0.001822
      dx2y2   :     0.005883
      dxy     :     0.002461
  9 O s       :     3.880928  s :     3.880928
      pz      :     1.509631  p :     4.563999
      px      :     1.337882
      py      :     1.716486
      dz2     :     0.008499  d :     0.045906
      dxz     :     0.009634
      dyz     :     0.009371
      dx2y2   :     0.010122
      dxy     :     0.008280
      f0      :     0.000615  f :     0.004650
      f+1     :     0.000585
      f-1     :     0.000836
      f+2     :     0.000583
      f-2     :     0.000824
      f+3     :     0.000744
      f-3     :     0.000464
 10 H s       :     0.566234  s :     0.566234
      pz      :     0.029964  p :     0.065691
      px      :    -0.008189
      py      :     0.043916
      dz2     :     0.003088  d :     0.047430
      dxz     :     0.014421
      dyz     :     0.000238
      dx2y2   :     0.007247
      dxy     :     0.022436
 11 H s       :     0.698768  s :     0.698768
      pz      :     0.024832  p :     0.107575
      px      :     0.035666
      py      :     0.047077
      dz2     :     0.006755  d :     0.018801
      dxz     :     0.001565
      dyz     :     0.003464
      dx2y2   :     0.004345
      dxy     :     0.002672


                     *******************************
                     * LOEWDIN POPULATION ANALYSIS *
                     *******************************

----------------------
LOEWDIN ATOMIC CHARGES
----------------------
   0 O :    1.094637
   1 H :   -0.447471
   2 H :   -0.647179
   3 O :    1.094530
   4 H :   -0.647064
   5 H :   -0.447450
   6 O :    1.094490
   7 H :   -0.647116
   8 H :   -0.447415
   9 O :    1.094475
  10 H :   -0.647163
  11 H :   -0.447272

-------------------------------
LOEWDIN REDUCED ORBITAL CHARGES
-------------------------------
  0 O s       :     2.953534  s :     2.953534
      pz      :     1.244925  p :     3.802870
      px      :     1.325488
      py      :     1.232458
      dz2     :     0.033040  d :     0.126812
      dxz     :     0.023255
      dyz     :     0.014539
      dx2y2   :     0.043410
      dxy     :     0.012568
      f0      :     0.002252  f :     0.022147
      f+1     :     0.006117
      f-1     :     0.003208
      f+2     :     0.001614
      f-2     :     0.001466
      f+3     :     0.003345
      f-3     :     0.004146
  1 H s       :     0.575884  s :     0.575884
      pz      :     0.226250  p :     0.522922
      px      :     0.163665
      py      :     0.133007
      dz2     :     0.113057  d :     0.348666
      dxz     :     0.091258
      dyz     :     0.090148
      dx2y2   :     0.031352
      dxy     :     0.022852
  2 H s       :     0.529016  s :     0.529016
      pz      :     0.133840  p :     0.610733
      px      :     0.139100
      py      :     0.337793
      dz2     :     0.056238  d :     0.507431
      dxz     :     0.004865
      dyz     :     0.150675
      dx2y2   :     0.155957
      dxy     :     0.139696
  3 O s       :     2.953585  s :     2.953585
      pz      :     1.286304  p :     3.802925
      px      :     1.235256
      py      :     1.281365
      dz2     :     0.019502  d :     0.126811
      dxz     :     0.014231
      dyz     :     0.031927
      dx2y2   :     0.047517
      dxy     :     0.013635
      f0      :     0.001398  f :     0.022148
      f+1     :     0.002266
      f-1     :     0.005105
      f+2     :     0.003788
      f-2     :     0.001744
      f+3     :     0.004422
      f-3     :     0.003425
  4 H s       :     0.528983  s :     0.528983
      pz      :     0.140661  p :     0.610674
      px      :     0.336516
      py      :     0.133497
      dz2     :     0.059506  d :     0.507408
      dxz     :     0.146608
      dyz     :     0.008631
      dx2y2   :     0.151638
      dxy     :     0.141026
  5 H s       :     0.575876  s :     0.575876
      pz      :     0.205692  p :     0.522908
      px      :     0.133311
      py      :     0.183904
      dz2     :     0.094320  d :     0.348666
      dxz     :     0.065142
      dyz     :     0.085836
      dx2y2   :     0.055193
      dxy     :     0.048176
  6 O s       :     2.953593  s :     2.953593
      pz      :     1.332011  p :     3.802962
      px      :     1.279977
      py      :     1.190975
      dz2     :     0.018630  d :     0.126808
      dxz     :     0.024686
      dyz     :     0.016137
      dx2y2   :     0.045547
      dxy     :     0.021808
      f0      :     0.001567  f :     0.022147
      f+1     :     0.002895
      f-1     :     0.002609
      f+2     :     0.002669
      f-2     :     0.004135
      f+3     :     0.003368
      f-3     :     0.004904
  7 H s       :     0.528995  s :     0.528995
      pz      :     0.145571  p :     0.610703
      px      :     0.134015
      py      :     0.331118
      dz2     :     0.050583  d :     0.507418
      dxz     :     0.003542
      dyz     :     0.159319
      dx2y2   :     0.147579
      dxy     :     0.146395
  8 H s       :     0.575871  s :     0.575871
      pz      :     0.197965  p :     0.522885
      px      :     0.184605
      py      :     0.140315
      dz2     :     0.084652  d :     0.348659
      dxz     :     0.078122
      dyz     :     0.053232
      dx2y2   :     0.076289
      dxy     :     0.056365
  9 O s       :     2.953615  s :     2.953615
      pz      :     1.292914  p :     3.802952
      px      :     1.187386
      py      :     1.322652
      dz2     :     0.023496  d :     0.126809
      dxz     :     0.023936
      dyz     :     0.020040
      dx2y2   :     0.043008
      dxy     :     0.016329
      f0      :     0.001300  f :     0.022149
      f+1     :     0.003903
      f-1     :     0.004118
      f+2     :     0.001955
      f-2     :     0.003590
      f+3     :     0.004080
      f-3     :     0.003204
 10 H s       :     0.529012  s :     0.529012
      pz      :     0.143710  p :     0.610721
      px      :     0.328859
      py      :     0.138152
      dz2     :     0.049895  d :     0.507429
      dxz     :     0.163509
      dyz     :     0.004416
      dx2y2   :     0.148809
      dxy     :     0.140800
 11 H s       :     0.575837  s :     0.575837
      pz      :     0.215666  p :     0.522800
      px      :     0.142006
      py      :     0.165128
      dz2     :     0.106976  d :     0.348635
      dxz     :     0.072070
      dyz     :     0.077092
      dx2y2   :     0.054354
      dxy     :     0.038143


                      *****************************
                      * MAYER POPULATION ANALYSIS *
                      *****************************

  NA   - Mulliken gross atomic population
  ZA   - Total nuclear charge
  QA   - Mulliken gross atomic charge
  VA   - Mayer's total valence
  BVA  - Mayer's bonded valence
  FA   - Mayer's free valence

  ATOM       NA         ZA         QA         VA         BVA        FA
  0 O      8.4953     8.0000    -0.4953     2.1430     1.7616     0.3814
  1 H      0.8253     1.0000     0.1747     1.0941     1.0257     0.0684
  2 H      0.6794     1.0000     0.3206     0.9551     0.8950     0.0601
  3 O      8.4954     8.0000    -0.4954     2.1429     1.7614     0.3814
  4 H      0.6793     1.0000     0.3207     0.9551     0.8950     0.0601
  5 H      0.8252     1.0000     0.1748     1.0941     1.0257     0.0684
  6 O      8.4955     8.0000    -0.4955     2.1427     1.7613     0.3814
  7 H      0.6793     1.0000     0.3207     0.9551     0.8950     0.0601
  8 H      0.8252     1.0000     0.1748     1.0941     1.0257     0.0684
  9 O      8.4955     8.0000    -0.4955     2.1428     1.7614     0.3814
 10 H      0.6794     1.0000     0.3206     0.9551     0.8950     0.0601
 11 H      0.8251     1.0000     0.1749     1.0940     1.0256     0.0684

  Mayer bond orders larger than 0.100000
B(  0-O ,  1-H ) :   0.9880 B(  0-O ,  2-H ) :   0.8087 B(  3-O ,  4-H ) :   0.8086 
B(  3-O ,  5-H ) :   0.9880 B(  6-O ,  7-H ) :   0.8086 B(  6-O ,  8-H ) :   0.9879 
B(  9-O , 10-H ) :   0.8086 B(  9-O , 11-H ) :   0.9879 


                *******************************************
                * RELAXED MP2 DENSITY POPULATION ANALYSIS *
                *******************************************

------------------------------------------------------------------------------
                           ORCA POPULATION ANALYSIS
------------------------------------------------------------------------------
Input electron density              ... 4h2o.temelso.etal-orca.engrad-mp2.augccpvtz.pmp2re
BaseName (.gbw .S,...)              ... 4h2o.temelso.etal-orca.engrad-mp2.augccpvtz

                    ********************************
                    * MULLIKEN POPULATION ANALYSIS *
                    ********************************

-----------------------
MULLIKEN ATOMIC CHARGES
-----------------------
   0 O :   -0.468282
   1 H :    0.176234
   2 H :    0.292053
   3 O :   -0.468392
   4 H :    0.292095
   5 H :    0.176288
   6 O :   -0.468414
   7 H :    0.292095
   8 H :    0.176302
   9 O :   -0.468426
  10 H :    0.292065
  11 H :    0.176383
Sum of atomic charges:   -0.0000000

--------------------------------
MULLIKEN REDUCED ORBITAL CHARGES
--------------------------------
  0 O s       :     3.876987  s :     3.876987
      pz      :     1.427879  p :     4.541493
      px      :     1.700163
      py      :     1.413451
      dz2     :     0.009094  d :     0.045168
      dxz     :     0.009613
      dyz     :     0.007102
      dx2y2   :     0.011161
      dxy     :     0.008197
      f0      :     0.000549  f :     0.004635
      f+1     :     0.001001
      f-1     :     0.000561
      f+2     :     0.000677
      f-2     :     0.000619
      f+3     :     0.000539
      f-3     :     0.000689
  1 H s       :     0.689686  s :     0.689686
      pz      :     0.025937  p :     0.117470
      px      :     0.052685
      py      :     0.038849
      dz2     :     0.004846  d :     0.016610
      dxz     :     0.003998
      dyz     :     0.003698
      dx2y2   :     0.002554
      dxy     :     0.001514
  2 H s       :     0.578609  s :     0.578609
      pz      :     0.040025  p :     0.087912
      px      :     0.051277
      py      :    -0.003390
      dz2     :     0.002008  d :     0.041426
      dxz     :     0.000889
      dyz     :     0.014541
      dx2y2   :     0.005273
      dxy     :     0.018715
  3 O s       :     3.876989  s :     3.876989
      pz      :     1.542029  p :     4.541591
      px      :     1.418965
      py      :     1.580597
      dz2     :     0.008755  d :     0.045177
      dxz     :     0.007091
      dyz     :     0.008469
      dx2y2   :     0.012515
      dxy     :     0.008346
      f0      :     0.000689  f :     0.004635
      f+1     :     0.000646
      f-1     :     0.000761
      f+2     :     0.000814
      f-2     :     0.000623
      f+3     :     0.000586
      f-3     :     0.000515
  4 H s       :     0.578583  s :     0.578583
      pz      :     0.047700  p :     0.087897
      px      :    -0.003400
      py      :     0.043597
      dz2     :     0.002943  d :     0.041425
      dxz     :     0.014755
      dyz     :     0.001125
      dx2y2   :     0.005099
      dxy     :     0.017503
  5 H s       :     0.689654  s :     0.689654
      pz      :     0.035393  p :     0.117451
      px      :     0.039176
      py      :     0.042882
      dz2     :     0.006995  d :     0.016607
      dxz     :     0.002823
      dyz     :     0.000717
      dx2y2   :     0.003619
      dxy     :     0.002453
  6 O s       :     3.876992  s :     3.876992
      pz      :     1.622478  p :     4.541614
      px      :     1.574851
      py      :     1.344285
      dz2     :     0.008633  d :     0.045173
      dxz     :     0.008262
      dyz     :     0.008393
      dx2y2   :     0.011299
      dxy     :     0.008586
      f0      :     0.000729  f :     0.004635
      f+1     :     0.000662
      f-1     :     0.000682
      f+2     :     0.000707
      f-2     :     0.000782
      f+3     :     0.000450
      f-3     :     0.000624
  7 H s       :     0.578564  s :     0.578564
      pz      :     0.044621  p :     0.087936
      px      :     0.043191
      py      :     0.000125
      dz2     :     0.001922  d :     0.041405
      dxz     :     0.000178
      dyz     :     0.015613
      dx2y2   :     0.005947
      dxy     :     0.017745
  8 H s       :     0.689624  s :     0.689624
[...]
Input electron density              ... 4h2o.temelso.etal-orca.engrad-mp2.augccpvtz_job3.pmp2re
BaseName (.gbw .S,...)              ... 4h2o.temelso.etal-orca.engrad-mp2.augccpvtz_job3

                    ********************************
                    * MULLIKEN POPULATION ANALYSIS *
                    ********************************

-----------------------
MULLIKEN ATOMIC CHARGES
-----------------------
   0 O :   -0.488373
   1 H :    0.321295
   2 H :    0.150380
   3 O :   -0.469340
   4 H :    0.185831
   5 H :    0.320653
   6 O :   -0.490805
   7 H :    0.316980
   8 H :    0.149852
   9 O :   -0.565737
  10 H :    0.251017
  11 H :    0.318247
Sum of atomic charges:   -0.0000000

--------------------------------
MULLIKEN REDUCED ORBITAL CHARGES
--------------------------------
  0 O s       :     3.891886  s :     3.891886
      pz      :     1.681784  p :     4.550535
      px      :     1.292530
      py      :     1.576221
      dz2     :     0.007298  d :     0.041264
      dxz     :     0.006221
      dyz     :     0.010501
      dx2y2   :     0.007846
      dxy     :     0.009399
      f0      :     0.000753  f :     0.004688
      f+1     :     0.000763
      f-1     :     0.000658
      f+2     :     0.000725
      f-2     :     0.000626
      f+3     :     0.000533
      f-3     :     0.000629
  1 H s       :     0.549827  s :     0.549827
      pz      :     0.038050  p :     0.102326
      px      :     0.031422
      py      :     0.032854
      dz2     :     0.011323  d :     0.026552
      dxz     :     0.004437
      dyz     :    -0.001103
      dx2y2   :     0.005794
      dxy     :     0.006101
  2 H s       :     0.724489  s :     0.724489
      pz      :     0.051929  p :     0.110521
      px      :     0.016378
      py      :     0.042214
      dz2     :     0.000729  d :     0.014611
      dxz     :     0.006808
      dyz     :     0.000224
      dx2y2   :     0.000983
      dxy     :     0.005867
  3 O s       :     3.875396  s :     3.875396
      pz      :     1.321220  p :     4.543562
      px      :     1.718600
      py      :     1.503742
      dz2     :     0.010360  d :     0.045627
      dxz     :     0.007108
      dyz     :     0.008094
      dx2y2   :     0.008850
      dxy     :     0.011215
      f0      :     0.000763  f :     0.004755
      f+1     :     0.000792
      f-1     :     0.000536
      f+2     :     0.000598
      f-2     :     0.000599
      f+3     :     0.000814
      f-3     :     0.000653
  4 H s       :     0.676752  s :     0.676752
      pz      :     0.031983  p :     0.121045
      px      :     0.049577
      py      :     0.039485
      dz2     :     0.002487  d :     0.016372
      dxz     :     0.005744
      dyz     :     0.006150
      dx2y2   :     0.001137
      dxy     :     0.000855
  5 H s       :     0.563561  s :     0.563561
      pz      :     0.029605  p :     0.082172
      px      :     0.030516
      py      :     0.022050
      dz2     :     0.006146  d :     0.033614
      dxz     :     0.007842
      dyz     :     0.006425
      dx2y2   :     0.007095
      dxy     :     0.006105
  6 O s       :     3.896621  s :     3.896621
      pz      :     1.594836  p :     4.546975
      px      :     1.586949
      py      :     1.365190
      dz2     :     0.008410  d :     0.042578
      dxz     :     0.012670
      dyz     :     0.005439
      dx2y2   :     0.007226
      dxy     :     0.008833
      f0      :     0.000759  f :     0.004630
      f+1     :     0.000670
      f-1     :     0.000660
      f+2     :     0.000782
      f-2     :     0.000591
      f+3     :     0.000677
      f-3     :     0.000491
  7 H s       :     0.554586  s :     0.554586
      pz      :     0.033737  p :     0.090946
      px      :     0.024552
      py      :     0.032657
      dz2     :     0.014584  d :     0.037489
      dxz     :    -0.002647
      dyz     :     0.011231
      dx2y2   :     0.006637
      dxy     :     0.007683
  8 H s       :     0.721437  s :     0.721437
      pz      :     0.047572  p :     0.112796
      px      :     0.043437
      py      :     0.021787
      dz2     :     0.003384  d :     0.015914
      dxz     :     0.001082
      dyz     :     0.003540
      dx2y2   :     0.002226
      dxy     :     0.005683
  9 O s       :     3.931080  s :     3.931080
      pz      :     1.488922  p :     4.581926
      px      :     1.490377
      py      :     1.602627
      dz2     :     0.006858  d :     0.048022
      dxz     :     0.008072
      dyz     :     0.011560
      dx2y2   :     0.012022
      dxy     :     0.009511
      f0      :     0.000660  f :     0.004708
      f+1     :     0.000570
      f-1     :     0.000791
      f+2     :     0.000780
      f-2     :     0.000563
      f+3     :     0.000673
      f-3     :     0.000670
 10 H s       :     0.619664  s :     0.619664
      pz      :     0.040916  p :     0.113189
      px      :     0.039232
      py      :     0.033042
      dz2     :     0.006337  d :     0.016130
      dxz     :     0.003739
      dyz     :     0.000041
      dx2y2   :     0.002587
      dxy     :     0.003427
 11 H s       :     0.553954  s :     0.553954
      pz      :     0.040185  p :     0.108856
      px      :     0.032717
      py      :     0.035953
      dz2     :     0.005082  d :     0.018944
      dxz     :     0.002741
      dyz     :     0.003964
      dx2y2   :     0.001316
      dxy     :     0.005841


                     *******************************
                     * LOEWDIN POPULATION ANALYSIS *
                     *******************************

----------------------
LOEWDIN ATOMIC CHARGES
----------------------
   0 O :    1.078088
   1 H :   -0.630781
   2 H :   -0.469879
   3 O :    1.096016
   4 H :   -0.450150
   5 H :   -0.599250
   6 O :    1.095265
   7 H :   -0.642655
   8 H :   -0.455021
   9 O :    1.081422
  10 H :   -0.503263
  11 H :   -0.599790

-------------------------------
LOEWDIN REDUCED ORBITAL CHARGES
-------------------------------
  0 O s       :     2.969859  s :     2.969859
      pz      :     1.332992  p :     3.813816
      px      :     1.190551
      py      :     1.290272
      dz2     :     0.014642  d :     0.117746
      dxz     :     0.016502
      dyz     :     0.027282
      dx2y2   :     0.038471
      dxy     :     0.020850
      f0      :     0.001989  f :     0.020491
      f+1     :     0.002880
      f-1     :     0.001690
      f+2     :     0.003228
      f-2     :     0.002783
      f+3     :     0.005383
      f-3     :     0.002536
  1 H s       :     0.540786  s :     0.540786
      pz      :     0.219085  p :     0.614288
      px      :     0.163631
      py      :     0.231571
      dz2     :     0.094687  d :     0.475707
      dxz     :     0.080217
      dyz     :     0.112400
      dx2y2   :     0.094805
      dxy     :     0.093598
  2 H s       :     0.577988  s :     0.577988
      pz      :     0.159624  p :     0.546312
      px      :     0.234188
      py      :     0.152499
      dz2     :     0.032671  d :     0.345580
      dxz     :     0.110905
      dyz     :     0.005361
      dx2y2   :     0.083757
      dxy     :     0.112887
  3 O s       :     2.958301  s :     2.958301
      pz      :     1.179823  p :     3.799565
      px      :     1.361794
      py      :     1.257947
      dz2     :     0.038286  d :     0.123374
      dxz     :     0.024216
      dyz     :     0.023715
      dx2y2   :     0.017028
      dxy     :     0.020130
      f0      :     0.005445  f :     0.022744
      f+1     :     0.005254
      f-1     :     0.001603
      f+2     :     0.002254
      f-2     :     0.003257
      f+3     :     0.003574
      f-3     :     0.001356
  4 H s       :     0.567207  s :     0.567207
      pz      :     0.220496  p :     0.538079
      px      :     0.176712
      py      :     0.140871
      dz2     :     0.107185  d :     0.344865
      dxz     :     0.106781
      dyz     :     0.108438
      dx2y2   :     0.013729
      dxy     :     0.008732
  5 H s       :     0.529447  s :     0.529447
      pz      :     0.163241  p :     0.601322
      px      :     0.188389
      py      :     0.249692
      dz2     :     0.075265  d :     0.468481
      dxz     :     0.049628
      dyz     :     0.118971
      dx2y2   :     0.103419
      dxy     :     0.121198
  6 O s       :     2.956228  s :     2.956228
      pz      :     1.288404  p :     3.798614
      px      :     1.287653
      py      :     1.222557
      dz2     :     0.012266  d :     0.128609
      dxz     :     0.035897
      dyz     :     0.025676
      dx2y2   :     0.038794
      dxy     :     0.015976
      f0      :     0.002982  f :     0.021284
      f+1     :     0.002715
      f-1     :     0.001212
      f+2     :     0.005664
      f-2     :     0.002105
      f+3     :     0.002564
      f-3     :     0.004042
  7 H s       :     0.524586  s :     0.524586
      pz      :     0.229717  p :     0.623029
      px      :     0.242503
      py      :     0.150809
      dz2     :     0.104532  d :     0.495040
      dxz     :     0.131706
      dyz     :     0.084448
      dx2y2   :     0.087391
      dxy     :     0.086964
  8 H s       :     0.576219  s :     0.576219
      pz      :     0.159305  p :     0.537182
      px      :     0.150051
      py      :     0.227825
      dz2     :     0.049614  d :     0.341620
      dxz     :     0.020083
      dyz     :     0.097870
      dx2y2   :     0.077549
      dxy     :     0.096504
  9 O s       :     2.969625  s :     2.969625
      pz      :     1.233737  p :     3.810304
      px      :     1.260555
      py      :     1.316011
      dz2     :     0.011628  d :     0.116875
      dxz     :     0.027851
      dyz     :     0.036671
      dx2y2   :     0.028084
      dxy     :     0.012641
      f0      :     0.002820  f :     0.021774
      f+1     :     0.000938
      f-1     :     0.004035
      f+2     :     0.006811
      f-2     :     0.002112
      f+3     :     0.002888
      f-3     :     0.002169
 10 H s       :     0.555040  s :     0.555040
      pz      :     0.189615  p :     0.563232
      px      :     0.142225
      py      :     0.231392
      dz2     :     0.095241  d :     0.384992
      dxz     :     0.067591
      dyz     :     0.093773
      dx2y2   :     0.069301
      dxy     :     0.059084
 11 H s       :     0.544588  s :     0.544588
      pz      :     0.178433  p :     0.597771
      px      :     0.251184
      py      :     0.168155
      dz2     :     0.075928  d :     0.457431
      dxz     :     0.117854
      dyz     :     0.054212
      dx2y2   :     0.087028
      dxy     :     0.122410


                      *****************************
                      * MAYER POPULATION ANALYSIS *
                      *****************************

  NA   - Mulliken gross atomic population
  ZA   - Total nuclear charge
  QA   - Mulliken gross atomic charge
  VA   - Mayer's total valence
  BVA  - Mayer's bonded valence
  FA   - Mayer's free valence

  ATOM       NA         ZA         QA         VA         BVA        FA
  0 O      8.4884     8.0000    -0.4884     2.1912     1.8167     0.3745
  1 H      0.6787     1.0000     0.3213     0.9333     0.8744     0.0590
  2 H      0.8496     1.0000     0.1504     1.0994     1.0312     0.0682
  3 O      8.4693     8.0000    -0.4693     2.1716     1.7958     0.3758
  4 H      0.8142     1.0000     0.1858     1.1043     1.0380     0.0663
  5 H      0.6793     1.0000     0.3207     0.9460     0.8896     0.0564
  6 O      8.4908     8.0000    -0.4908     2.1683     1.7933     0.3750
  7 H      0.6830     1.0000     0.3170     0.9649     0.9075     0.0574
  8 H      0.8501     1.0000     0.1499     1.0921     1.0220     0.0701
  9 O      8.5657     8.0000    -0.5657     2.0935     1.7133     0.3801
 10 H      0.7490     1.0000     0.2510     1.0296     0.9666     0.0630
 11 H      0.6818     1.0000     0.3182     0.9399     0.8832     0.0567

  Mayer bond orders larger than 0.100000
B(  0-O ,  1-H ) :   0.8182 B(  0-O ,  2-H ) :   1.0078 B(  3-O ,  4-H ) :   0.9818 
B(  3-O ,  5-H ) :   0.8132 B(  6-O ,  7-H ) :   0.8051 B(  6-O ,  8-H ) :   1.0026 
B(  9-O , 10-H ) :   0.9097 B(  9-O , 11-H ) :   0.8365 


----------------------------------
MP2 DERIVATIVE INTEGRAL GENERATION
----------------------------------


Input Wavefunction Amplitudes       ... 4h2o.temelso.etal-orca.engrad-mp2.augccpvtz_job3.mp2tsaa.tmp
Input Correlated Electron Density   ... 4h2o.temelso.etal-orca.engrad-mp2.augccpvtz_job3.pmp2re
Input Energy Weighted Density       ... 4h2o.temelso.etal-orca.engrad-mp2.augccpvtz_job3.wmp2.tmp
Input SCF Electron Density          ... 4h2o.temelso.etal-orca.engrad-mp2.augccpvtz_job3.scfp

One-Electron Terms    ...
                        ... One-Electron Terms done
Prescreening matrices              ... done

Batch handling in the gradient evaluation:
Memory available                      ... 8000.0 MB
Memory per occupied orbital in Q2     ...   16.5 MB
Memory per occupied orbital in Q3     ...    0.1 MB
Total memory requirement per |i>      ...   16.7 MB
Max. Number of orbitals possible      ...    479
Number of orbitals treated per batch  ...     16
Number of batches to be done          ...      1
Batch   0: i=    4 ...    19

---------------------------------------
MP2 TOTAL ENERGY:     -305.355103889 Eh
---------------------------------------

The final MP2 gradient
  0:  -0.00284062  -0.00341003   0.00201108
  1:  -0.00076695   0.00259334  -0.00218000
  2:   0.00337129   0.00065568   0.00067719
  3:  -0.00307630   0.00317314  -0.00220371
  4:   0.00129279   0.00035756   0.00393667
  5:   0.00143397  -0.00279522  -0.00049271
  6:   0.00281632  -0.00307679  -0.00132941
  7:  -0.00246938  -0.00004293   0.00197593
  8:  -0.00056079   0.00310520  -0.00127131
  9:  -0.00314326  -0.00433205   0.00019461
 10:   0.00029701   0.00360262  -0.00230949
 11:   0.00364592   0.00016949   0.00099116

-----------------------------------
NORM OF THE MP2 GRADIENT:  0.014212
-----------------------------------

-------------------------   --------------------
FINAL SINGLE POINT ENERGY      -305.355103889132
-------------------------   --------------------


                            ***************************************
                            *     ORCA property calculations      *
                            ***************************************

                                    ---------------------
                                    Active property flags
                                    ---------------------
   (+) Dipole Moment


------------------------------------------------------------------------------
                       ORCA ELECTRIC PROPERTIES CALCULATION
------------------------------------------------------------------------------

Dipole Moment Calculation                       ... on
Quadrupole Moment Calculation                   ... off
Polarizability Calculation                      ... off
GBWName                                         ... 4h2o.temelso.etal-orca.engrad-mp2.augccpvtz_job3.gbw
Electron density file                           ... 4h2o.temelso.etal-orca.engrad-mp2.augccpvtz_job3.scfp
The origin for moment calculation is the CENTER OF MASS  = ( 0.000005,  0.000006  0.000001)

-------------
DIPOLE MOMENT
-------------
                                X             Y             Z
Electronic contribution:     -0.26790      -0.26351      -0.00224
Nuclear contribution   :      1.10937       1.33411       0.14516
                        -----------------------------------------
Total Dipole Moment    :      0.84147       1.07059       0.14292
                        -----------------------------------------
Magnitude (a.u.)       :      1.36918
Magnitude (Debye)      :      3.48019



--------------------
Rotational spectrum 
--------------------
 
Rotational constants in cm-1:     0.125997     0.106938     0.087007 
Rotational constants in MHz :  3777.287233  3205.933136  2608.416240 

 Dipole components along the rotational axes: 
x,y,z [a.u.] :     0.604589     1.209644     0.214238 
x,y,z [Debye]:     1.536743     3.074671     0.544549 

 

                         *** MP2 UNRELAXED DENSITY ***

------------------------------------------------------------------------------
                       ORCA ELECTRIC PROPERTIES CALCULATION
------------------------------------------------------------------------------

Dipole Moment Calculation                       ... on
Quadrupole Moment Calculation                   ... off
Polarizability Calculation                      ... off
GBWName                                         ... 4h2o.temelso.etal-orca.engrad-mp2.augccpvtz_job3.gbw
Electron density file                           ... 4h2o.temelso.etal-orca.engrad-mp2.augccpvtz_job3.pmp2ur
The origin for moment calculation is the CENTER OF MASS  = ( 0.000005,  0.000006  0.000001)

-------------
DIPOLE MOMENT
-------------
                                X             Y             Z
Electronic contribution:     -0.28638      -0.28507      -0.00419
Nuclear contribution   :      1.10937       1.33411       0.14516
                        -----------------------------------------
Total Dipole Moment    :      0.82299       1.04904       0.14097
                        -----------------------------------------
Magnitude (a.u.)       :      1.34077
Magnitude (Debye)      :      3.40797



--------------------
Rotational spectrum 
--------------------
 
Rotational constants in cm-1:     0.125997     0.106938     0.087007 
Rotational constants in MHz :  3777.287233  3205.933136  2608.416240 

 Dipole components along the rotational axes: 
x,y,z [a.u.] :     0.590897     1.184936     0.210808 
x,y,z [Debye]:     1.501940     3.011868     0.535830 

 

                           *** MP2 RELAXED DENSITY ***

------------------------------------------------------------------------------
                       ORCA ELECTRIC PROPERTIES CALCULATION
------------------------------------------------------------------------------

Dipole Moment Calculation                       ... on
Quadrupole Moment Calculation                   ... off
Polarizability Calculation                      ... off
GBWName                                         ... 4h2o.temelso.etal-orca.engrad-mp2.augccpvtz_job3.gbw
Electron density file                           ... 4h2o.temelso.etal-orca.engrad-mp2.augccpvtz_job3.pmp2re
The origin for moment calculation is the CENTER OF MASS  = ( 0.000005,  0.000006  0.000001)

-------------
DIPOLE MOMENT
-------------
                                X             Y             Z
Electronic contribution:     -0.32305      -0.32918      -0.00661
Nuclear contribution   :      1.10937       1.33411       0.14516
                        -----------------------------------------
Total Dipole Moment    :      0.78632       1.00493       0.13856
                        -----------------------------------------
Magnitude (a.u.)       :      1.28350
Magnitude (Debye)      :      3.26240



--------------------
Rotational spectrum 
--------------------
 
Rotational constants in cm-1:     0.125997     0.106938     0.087007 
Rotational constants in MHz :  3777.287233  3205.933136  2608.416240 

 Dipole components along the rotational axes: 
x,y,z [a.u.] :     0.563960     1.134522     0.205395 
x,y,z [Debye]:     1.433473     2.883726     0.522071 

 

Timings for individual modules:

Sum of individual times         ...      188.512 sec (=   3.142 min)
GTO integral calculation        ...        1.030 sec (=   0.017 min)   0.5 %
SCF iterations                  ...       36.722 sec (=   0.612 min)  19.5 %
MP2 module                      ...      150.759 sec (=   2.513 min)  80.0 %



                             ****ORCA TERMINATED NORMALLY****
TOTAL RUN TIME: 0 days 0 hours 8 minutes 56 seconds 357 msec
