
                                 *****************
                                 * O   R   C   A *
                                 *****************

           --- An Ab Initio, DFT and Semiempirical electronic structure package ---

                  #######################################################
                  #                        -***-                        #
                  #          Department of theory and spectroscopy      #
                  #               Directorship: Frank Neese             #
                  #        Max Planck Institute fuer Kohlenforschung    #
                  #                Kaiser Wilhelm Platz 1               #
                  #                 D-45470 Muelheim/Ruhr               #
                  #                      Germany                        #
                  #                                                     #
                  #                  All rights reserved                #
                  #                        -***-                        #
                  #######################################################


                         Program Version 4.2.0 -  RELEASE  -


 With contributions from (in alphabetic order):
   Daniel Aravena         : Magnetic Suceptibility
   Michael Atanasov       : Ab Initio Ligand Field Theory (pilot matlab implementation)
   Alexander A. Auer      : GIAO ZORA, VPT2
   Ute Becker             : Parallelization
   Giovanni Bistoni       : ED, misc. LED, open-shell LED, HFLED
   Martin Brehm           : Molecular dynamics
   Dmytro Bykov           : SCF Hessian
   Vijay G. Chilkuri      : MRCI spin determinant printing, contributions to CSF-ICE
   Dipayan Datta          : RHF DLPNO-CCSD density
   Achintya Kumar Dutta   : EOM-CC, STEOM-CC
   Dmitry Ganyushin       : Spin-Orbit,Spin-Spin,Magnetic field MRCI
   Miquel Garcia          : C-PCM Hessian, Gaussian charge scheme
   Yang Guo               : DLPNO-NEVPT2, CIM, IAO-localization
   Andreas Hansen         : Spin unrestricted coupled pair/coupled cluster methods
   Benjamin Helmich-Paris : CASSCF linear response (MC-RPA)
   Lee Huntington         : MR-EOM, pCC
   Robert Izsak           : Overlap fitted RIJCOSX, COSX-SCS-MP3, EOM
   Christian Kollmar      : KDIIS, OOCD, Brueckner-CCSD(T), CCSD density
   Simone Kossmann        : Meta GGA functionals, TD-DFT gradient, OOMP2, MP2 Hessian
   Martin Krupicka        : AUTO-CI
   Lucas Lang             : DCDCAS
   Dagmar Lenk            : GEPOL surface, SMD
   Dimitrios Liakos       : Extrapolation schemes; Compound Job, initial MDCI parallelization
   Dimitrios Manganas     : Further ROCIS development; embedding schemes
   Dimitrios Pantazis     : SARC Basis sets
   Taras Petrenko         : DFT Hessian,TD-DFT gradient, ASA, ECA, R-Raman, ABS, FL, XAS/XES, NRVS
   Peter Pinski           : DLPNO-MP2, DLPNO-MP2 Gradient
   Christoph Reimann      : Effective Core Potentials
   Marius Retegan         : Local ZFS, SOC
   Christoph Riplinger    : Optimizer, TS searches, QM/MM, DLPNO-CCSD(T), (RO)-DLPNO pert. Triples
   Tobias Risthaus        : Range-separated hybrids, TD-DFT gradient, RPA, STAB
   Michael Roemelt        : Original ROCIS implementation
   Masaaki Saitow         : Open-shell DLPNO-CCSD energy and density
   Barbara Sandhoefer     : DKH picture change effects
   Avijit Sen             : IP-ROCIS
   Kantharuban Sivalingam : CASSCF convergence, NEVPT2, FIC-MRCI
   Bernardo de Souza      : ESD, SOC TD-DFT
   Georgi Stoychev        : AutoAux, RI-MP2 NMR
   Willem Van den Heuvel  : Paramagnetic NMR
   Boris Wezisla          : Elementary symmetry handling
   Frank Wennmohs         : Technical directorship


 We gratefully acknowledge several colleagues who have allowed us to
 interface, adapt or use parts of their codes:
   Stefan Grimme, W. Hujo, H. Kruse,             : VdW corrections, initial TS optimization,
                  C. Bannwarth                     DFT functionals, gCP, sTDA/sTD-DF
   Ed Valeev, F. Pavosevic, A. Kumar             : LibInt (2-el integral package), F12 methods
   Garnet Chan, S. Sharma, J. Yang, R. Olivares  : DMRG
   Ulf Ekstrom                                   : XCFun DFT Library
   Mihaly Kallay                                 : mrcc  (arbitrary order and MRCC methods)
   Andreas Klamt, Michael Diedenhofen            : otool_cosmo (COSMO solvation model)
   Jiri Pittner, Ondrej Demel                    : Mk-CCSD
   Frank Weinhold                                : gennbo (NPA and NBO analysis)
   Christopher J. Cramer and Donald G. Truhlar   : smd solvation model
   Lars Goerigk                                  : TD-DFT with DH, B97 family of functionals
   V. Asgeirsson, H. Jonsson                     : NEB implementation
   FAccTs GmbH                                   : IRC, NEB, NEB-TS, Multilevel, MM, QM/MM, CI optimization
   S Lehtola, MJT Oliveira, MAL Marques          : LibXC Library


 Your calculation uses the libint2 library for the computation of 2-el integrals
 For citations please refer to: http://libint.valeyev.net

 Your ORCA version has been built with support for libXC version: 4.2.3
 For citations please refer to: https://tddft.org/programs/libxc/

 This ORCA versions uses:
   CBLAS   interface :  Fast vector & matrix operations
   LAPACKE interface :  Fast linear algebra routines
   SCALAPACK package :  Parallel linear algebra routines


----- Orbital basis set information -----
Your calculation utilizes the basis: def2-TZVP
   F. Weigend and R. Ahlrichs, Phys. Chem. Chem. Phys. 7, 3297 (2005).

================================================================================
                                        WARNINGS
                       Please study these warnings very carefully!
================================================================================


WARNING: The frozen-core approximation for MP2-gradient calculations is turned on by default.

INFO   : the flag for use of LIBINT has been found!

----- Orbital basis set information -----
Your calculation utilizes the basis: def2-TZVP
   F. Weigend and R. Ahlrichs, Phys. Chem. Chem. Phys. 7, 3297 (2005).

================================================================================
                                        WARNINGS
                       Please study these warnings very carefully!
================================================================================


WARNING: The frozen-core approximation for MP2-gradient calculations is turned on by default.

INFO   : the flag for use of LIBINT has been found!

----- Orbital basis set information -----
Your calculation utilizes the basis: def2-TZVP
   F. Weigend and R. Ahlrichs, Phys. Chem. Chem. Phys. 7, 3297 (2005).

================================================================================
                                        WARNINGS
                       Please study these warnings very carefully!
================================================================================


WARNING: The frozen-core approximation for MP2-gradient calculations is turned on by default.

INFO   : the flag for use of LIBINT has been found!

----- Orbital basis set information -----
Your calculation utilizes the basis: def2-TZVP
   F. Weigend and R. Ahlrichs, Phys. Chem. Chem. Phys. 7, 3297 (2005).

================================================================================
                                        WARNINGS
                       Please study these warnings very carefully!
================================================================================


WARNING: The frozen-core approximation for MP2-gradient calculations is turned on by default.

INFO   : the flag for use of LIBINT has been found!

----- Orbital basis set information -----
Your calculation utilizes the basis: def2-TZVP
   F. Weigend and R. Ahlrichs, Phys. Chem. Chem. Phys. 7, 3297 (2005).

================================================================================
                                        WARNINGS
                       Please study these warnings very carefully!
================================================================================


WARNING: The frozen-core approximation for MP2-gradient calculations is turned on by default.

INFO   : the flag for use of LIBINT has been found!

----- Orbital basis set information -----
Your calculation utilizes the basis: def2-TZVP
   F. Weigend and R. Ahlrichs, Phys. Chem. Chem. Phys. 7, 3297 (2005).

================================================================================
                                        WARNINGS
                       Please study these warnings very carefully!
================================================================================


WARNING: The frozen-core approximation for MP2-gradient calculations is turned on by default.

INFO   : the flag for use of LIBINT has been found!

----- Orbital basis set information -----
Your calculation utilizes the basis: def2-TZVP
   F. Weigend and R. Ahlrichs, Phys. Chem. Chem. Phys. 7, 3297 (2005).

================================================================================
                                        WARNINGS
                       Please study these warnings very carefully!
================================================================================


WARNING: The frozen-core approximation for MP2-gradient calculations is turned on by default.

INFO   : the flag for use of LIBINT has been found!

----- Orbital basis set information -----
Your calculation utilizes the basis: def2-TZVP
   F. Weigend and R. Ahlrichs, Phys. Chem. Chem. Phys. 7, 3297 (2005).

================================================================================
                                        WARNINGS
                       Please study these warnings very carefully!
================================================================================


WARNING: The frozen-core approximation for MP2-gradient calculations is turned on by default.

INFO   : the flag for use of LIBINT has been found!

----- Orbital basis set information -----
Your calculation utilizes the basis: def2-TZVP
   F. Weigend and R. Ahlrichs, Phys. Chem. Chem. Phys. 7, 3297 (2005).

================================================================================
                                        WARNINGS
                       Please study these warnings very carefully!
================================================================================


WARNING: The frozen-core approximation for MP2-gradient calculations is turned on by default.

INFO   : the flag for use of LIBINT has been found!

----- Orbital basis set information -----
Your calculation utilizes the basis: def2-TZVP
   F. Weigend and R. Ahlrichs, Phys. Chem. Chem. Phys. 7, 3297 (2005).

================================================================================
                                        WARNINGS
                       Please study these warnings very carefully!
================================================================================


WARNING: The frozen-core approximation for MP2-gradient calculations is turned on by default.

INFO   : the flag for use of LIBINT has been found!

----- Orbital basis set information -----
Your calculation utilizes the basis: def2-TZVP
   F. Weigend and R. Ahlrichs, Phys. Chem. Chem. Phys. 7, 3297 (2005).

================================================================================
                                        WARNINGS
                       Please study these warnings very carefully!
================================================================================


WARNING: The frozen-core approximation for MP2-gradient calculations is turned on by default.

INFO   : the flag for use of LIBINT has been found!

----- Orbital basis set information -----
Your calculation utilizes the basis: def2-TZVP
   F. Weigend and R. Ahlrichs, Phys. Chem. Chem. Phys. 7, 3297 (2005).

================================================================================
                                        WARNINGS
                       Please study these warnings very carefully!
================================================================================


WARNING: The frozen-core approximation for MP2-gradient calculations is turned on by default.

INFO   : the flag for use of LIBINT has been found!

----- Orbital basis set information -----
Your calculation utilizes the basis: def2-TZVP
   F. Weigend and R. Ahlrichs, Phys. Chem. Chem. Phys. 7, 3297 (2005).

================================================================================
                                        WARNINGS
                       Please study these warnings very carefully!
================================================================================


WARNING: The frozen-core approximation for MP2-gradient calculations is turned on by default.

INFO   : the flag for use of LIBINT has been found!

----- Orbital basis set information -----
Your calculation utilizes the basis: def2-TZVP
   F. Weigend and R. Ahlrichs, Phys. Chem. Chem. Phys. 7, 3297 (2005).

================================================================================
                                        WARNINGS
                       Please study these warnings very carefully!
================================================================================


WARNING: The frozen-core approximation for MP2-gradient calculations is turned on by default.

INFO   : the flag for use of LIBINT has been found!

----- Orbital basis set information -----
Your calculation utilizes the basis: def2-TZVP
   F. Weigend and R. Ahlrichs, Phys. Chem. Chem. Phys. 7, 3297 (2005).

================================================================================
                                        WARNINGS
                       Please study these warnings very carefully!
================================================================================


WARNING: The frozen-core approximation for MP2-gradient calculations is turned on by default.

INFO   : the flag for use of LIBINT has been found!

----- Orbital basis set information -----
Your calculation utilizes the basis: def2-TZVP
   F. Weigend and R. Ahlrichs, Phys. Chem. Chem. Phys. 7, 3297 (2005).

================================================================================
                                        WARNINGS
                       Please study these warnings very carefully!
================================================================================


WARNING: The frozen-core approximation for MP2-gradient calculations is turned on by default.

INFO   : the flag for use of LIBINT has been found!

----- Orbital basis set information -----
Your calculation utilizes the basis: def2-TZVP
   F. Weigend and R. Ahlrichs, Phys. Chem. Chem. Phys. 7, 3297 (2005).

================================================================================
                                        WARNINGS
                       Please study these warnings very carefully!
================================================================================


WARNING: The frozen-core approximation for MP2-gradient calculations is turned on by default.

INFO   : the flag for use of LIBINT has been found!

----- Orbital basis set information -----
Your calculation utilizes the basis: def2-TZVP
   F. Weigend and R. Ahlrichs, Phys. Chem. Chem. Phys. 7, 3297 (2005).

================================================================================
                                        WARNINGS
                       Please study these warnings very carefully!
================================================================================


WARNING: The frozen-core approximation for MP2-gradient calculations is turned on by default.

INFO   : the flag for use of LIBINT has been found!

----- Orbital basis set information -----
Your calculation utilizes the basis: def2-TZVP
   F. Weigend and R. Ahlrichs, Phys. Chem. Chem. Phys. 7, 3297 (2005).

================================================================================
                                        WARNINGS
                       Please study these warnings very carefully!
================================================================================


WARNING: The frozen-core approximation for MP2-gradient calculations is turned on by default.

INFO   : the flag for use of LIBINT has been found!

----- Orbital basis set information -----
Your calculation utilizes the basis: def2-TZVP
   F. Weigend and R. Ahlrichs, Phys. Chem. Chem. Phys. 7, 3297 (2005).

================================================================================
                                        WARNINGS
                       Please study these warnings very carefully!
================================================================================


WARNING: The frozen-core approximation for MP2-gradient calculations is turned on by default.

INFO   : the flag for use of LIBINT has been found!

----- Orbital basis set information -----
Your calculation utilizes the basis: def2-TZVP
   F. Weigend and R. Ahlrichs, Phys. Chem. Chem. Phys. 7, 3297 (2005).

================================================================================
                                        WARNINGS
                       Please study these warnings very carefully!
================================================================================


WARNING: The frozen-core approximation for MP2-gradient calculations is turned on by default.

INFO   : the flag for use of LIBINT has been found!

----- Orbital basis set information -----
Your calculation utilizes the basis: def2-TZVP
   F. Weigend and R. Ahlrichs, Phys. Chem. Chem. Phys. 7, 3297 (2005).

================================================================================
                                        WARNINGS
                       Please study these warnings very carefully!
================================================================================


WARNING: The frozen-core approximation for MP2-gradient calculations is turned on by default.

INFO   : the flag for use of LIBINT has been found!

----- Orbital basis set information -----
Your calculation utilizes the basis: def2-TZVP
   F. Weigend and R. Ahlrichs, Phys. Chem. Chem. Phys. 7, 3297 (2005).

================================================================================
                                        WARNINGS
                       Please study these warnings very carefully!
================================================================================


WARNING: The frozen-core approximation for MP2-gradient calculations is turned on by default.

INFO   : the flag for use of LIBINT has been found!

----- Orbital basis set information -----
Your calculation utilizes the basis: def2-TZVP
   F. Weigend and R. Ahlrichs, Phys. Chem. Chem. Phys. 7, 3297 (2005).

================================================================================
                                        WARNINGS
                       Please study these warnings very carefully!
================================================================================


WARNING: The frozen-core approximation for MP2-gradient calculations is turned on by default.

INFO   : the flag for use of LIBINT has been found!

================================================================================
                                       INPUT FILE
================================================================================
NAME = 4mecn.malloum.etal.dset.1mecn.dset-orca.engrad-mp2.def2tzvp.inp
|  1> # 4mecn.malloum.etal.dset.1mecn.dset-orca.engrad-mp2.def2tzvp
|  2> ! MP2 def2-TZVP EnGrad TightSCF FrozenCore
|  3> 
|  4> %pal
|  5>     nprocs 12
|  6> end
|  7> 
|  8> %maxcore 8000
|  9> 
| 10> %scf
| 11>     ConvForced true
| 12> end
| 13> 
| 14> *xyz 0 1
| 15> C  -0.167509614  -1.172565437   0.523928538
| 16> H  -0.126501614  -1.080410437   1.613231538
| 17> H   0.634609386  -1.839805437   0.200402538
| 18> H  -1.137367614  -1.577001437   0.222872538
| 19> C   0.026910386   0.148108563  -0.067579462
| 20> N   0.165833386   1.202004563  -0.537827462
| 21> *
| 22> 
| 23> 
| 24> $new_job
| 25> 
| 26> # 4mecn.malloum.etal.dset.1mecn.dset-orca.engrad-mp2.def2tzvp
| 27> ! MP2 def2-TZVP EnGrad TightSCF FrozenCore
| 28> 
| 29> %pal
| 30>     nprocs 12
| 31> end
| 32> 
| 33> %maxcore 8000
| 34> 
| 35> %scf
| 36>     ConvForced true
| 37> end
| 38> 
| 39> *xyz 0 1
| 40> C   0.167511222  -0.523928489  -1.172564828
| 41> H  -0.634608778  -0.200405489  -1.839804828
| 42> H   0.126507222  -1.613232489  -1.080408828
| 43> H   1.137368222  -0.222870489  -1.577000828
| 44> C  -0.026909778   0.067579511   0.148108172
| 45> N  -0.165835778   0.537827511   1.202004172
| 46> *
| 47> 
| 48> 
| 49> $new_job
| 50> 
| 51> # 4mecn.malloum.etal.dset.1mecn.dset-orca.engrad-mp2.def2tzvp
| 52> ! MP2 def2-TZVP EnGrad TightSCF FrozenCore
| 53> 
| 54> %pal
| 55>     nprocs 12
| 56> end
| 57> 
| 58> %maxcore 8000
| 59> 
| 60> %scf
| 61>     ConvForced true
| 62> end
| 63> 
| 64> *xyz 0 1
| 65> C  -0.167514366   1.172564511  -0.523928514
| 66> H  -0.126508366   1.080408511  -1.613232514
| 67> H   0.634602634   1.839807511  -0.200403514
| 68> H  -1.137373366   1.576996511  -0.222871514
| 69> C   0.026910634  -0.148108489   0.067579486
| 70> N   0.165838634  -1.202003489   0.537827486
| 71> *
| 72> 
| 73> 
| 74> $new_job
| 75> 
| 76> # 4mecn.malloum.etal.dset.1mecn.dset-orca.engrad-mp2.def2tzvp
| 77> ! MP2 def2-TZVP EnGrad TightSCF FrozenCore
| 78> 
| 79> %pal
| 80>     nprocs 12
| 81> end
| 82> 
| 83> %maxcore 8000
| 84> 
| 85> %scf
| 86>     ConvForced true
| 87> end
| 88> 
| 89> *xyz 0 1
| 90> C   0.167512806   0.523929172   1.172564145
| 91> H   1.137372806   0.222875172   1.576997145
| 92> H  -0.634603194   0.200401172   1.839807145
| 93> H   0.126502806   1.613232172   1.080410145
| 94> C  -0.026910194  -0.067579828  -0.148107855
| 95> N  -0.165837194  -0.537827828  -1.202003855
| 96> *
| 97> 
| 98> 
| 99> $new_job
|100> 
|101> # 4mecn.malloum.etal.dset.1mecn.dset-orca.engrad-mp2.def2tzvp
|102> ! MP2 def2-TZVP EnGrad TightSCF FrozenCore
|103> 
|104> %pal
|105>     nprocs 12
|106> end
|107> 
|108> %maxcore 8000
|109> 
|110> %scf
|111>     ConvForced true
|112> end
|113> 
|114> *xyz 0 1
|115> C  -0.052646390  -0.574137837  -1.159749364
|116> H  -0.161959390  -1.653656837  -1.030756364
|117> H   0.853218610  -0.356524837  -1.731162364
|118> H  -0.929161390  -0.196546837  -1.694440364
|119> C   0.012043610   0.072039163   0.147912636
|120> N   0.051932610   0.589303163   1.188243636
|121> *
|122> 
|123> 
|124> $new_job
|125> 
|126> # 4mecn.malloum.etal.dset.1mecn.dset-orca.engrad-mp2.def2tzvp
|127> ! MP2 def2-TZVP EnGrad TightSCF FrozenCore
|128> 
|129> %pal
|130>     nprocs 12
|131> end
|132> 
|133> %maxcore 8000
|134> 
|135> %scf
|136>     ConvForced true
|137> end
|138> 
|139> *xyz 0 1
|140> C   0.052646780  -0.574139544  -1.159748389
|141> H   0.161976780  -1.653655544  -1.030755389
|142> H   0.929150780  -0.196535544  -1.694446389
|143> H  -0.853226220  -0.356540544  -1.731154389
|144> C  -0.012043220   0.072038456   0.147912611
|145> N  -0.051933220   0.589305456   1.188242611
|146> *
|147> 
|148> 
|149> $new_job
|150> 
|151> # 4mecn.malloum.etal.dset.1mecn.dset-orca.engrad-mp2.def2tzvp
|152> ! MP2 def2-TZVP EnGrad TightSCF FrozenCore
|153> 
|154> %pal
|155>     nprocs 12
|156> end
|157> 
|158> %maxcore 8000
|159> 
|160> %scf
|161>     ConvForced true
|162> end
|163> 
|164> *xyz 0 1
|165> C  -0.000000341   0.529406947   1.182170237
|166> H   0.896568659   1.146227947   1.298588237
|167> H  -0.000000341  -0.254514053   1.943998237
|168> H  -0.896569341   1.146226947   1.298588237
|169> C  -0.000000341  -0.068734053  -0.149903763
|170> N   0.000000659  -0.541638053  -1.211863763
|171> *
|172> 
|173> 
|174> $new_job
|175> 
|176> # 4mecn.malloum.etal.dset.1mecn.dset-orca.engrad-mp2.def2tzvp
|177> ! MP2 def2-TZVP EnGrad TightSCF FrozenCore
|178> 
|179> %pal
|180>     nprocs 12
|181> end
|182> 
|183> %maxcore 8000
|184> 
|185> %scf
|186>     ConvForced true
|187> end
|188> 
|189> *xyz 0 1
|190> C  -0.000000025   0.535698988   1.179251187
|191> H   0.896603975   0.215985988   1.718828187
|192> H  -0.896602025   0.215983988   1.718829187
|193> H  -0.000001025   1.625438988   1.093722187
|194> C  -0.000000025  -0.068496012  -0.150084813
|195> N  -0.000000025  -0.548638012  -1.208500813
|196> *
|197> 
|198> 
|199> $new_job
|200> 
|201> # 4mecn.malloum.etal.dset.1mecn.dset-orca.engrad-mp2.def2tzvp
|202> ! MP2 def2-TZVP EnGrad TightSCF FrozenCore
|203> 
|204> %pal
|205>     nprocs 12
|206> end
|207> 
|208> %maxcore 8000
|209> 
|210> %scf
|211>     ConvForced true
|212> end
|213> 
|214> *xyz 0 1
|215> C   0.049881574  -0.059043412  -1.292847450
|216> H  -0.834635426   0.413322588  -1.727562450
|217> H   0.108970574  -1.102997412  -1.610023450
|218> H   0.951988574   0.459665588  -1.630464450
|219> C  -0.011513426   0.007104588   0.164402550
|220> N  -0.049183426   0.061084588   1.325046550
|221> *
|222> 
|223> 
|224> $new_job
|225> 
|226> # 4mecn.malloum.etal.dset.1mecn.dset-orca.engrad-mp2.def2tzvp
|227> ! MP2 def2-TZVP EnGrad TightSCF FrozenCore
|228> 
|229> %pal
|230>     nprocs 12
|231> end
|232> 
|233> %maxcore 8000
|234> 
|235> %scf
|236>     ConvForced true
|237> end
|238> 
|239> *xyz 0 1
|240> C  -0.049884425   0.059018602  -1.292848401
|241> H   0.834619575  -0.413376398  -1.727557401
|242> H  -0.108951425   1.102967602  -1.610044401
|243> H  -0.952003425  -0.459676398  -1.630452401
|244> C   0.011513575  -0.007102398   0.164402599
|245> N   0.049186575  -0.061058398   1.325047599
|246> *
|247> 
|248> 
|249> $new_job
|250> 
|251> # 4mecn.malloum.etal.dset.1mecn.dset-orca.engrad-mp2.def2tzvp
|252> ! MP2 def2-TZVP EnGrad TightSCF FrozenCore
|253> 
|254> %pal
|255>     nprocs 12
|256> end
|257> 
|258> %maxcore 8000
|259> 
|260> %scf
|261>     ConvForced true
|262> end
|263> 
|264> *xyz 0 1
|265> C  -0.010615064   0.002922713   1.295208380
|266> H   0.845929936  -0.572812287   1.659642380
|267> H  -0.942851064  -0.447473287   1.649266380
|268> H   0.060257936   1.028141713   1.667743380
|269> C  -0.000617064   0.000699713  -0.164941620
|270> N   0.012268936  -0.003671287  -1.327227620
|271> *
|272> 
|273> 
|274> $new_job
|275> 
|276> # 4mecn.malloum.etal.dset.1mecn.dset-orca.engrad-mp2.def2tzvp
|277> ! MP2 def2-TZVP EnGrad TightSCF FrozenCore
|278> 
|279> %pal
|280>     nprocs 12
|281> end
|282> 
|283> %maxcore 8000
|284> 
|285> %scf
|286>     ConvForced true
|287> end
|288> 
|289> *xyz 0 1
|290> C   0.010617964  -0.002901047   1.295207795
|291> H  -0.845924036   0.572842953   1.659632795
|292> H   0.942856964   0.447494953   1.649255795
|293> H  -0.060260036  -1.028114047   1.667759795
|294> C   0.000616964  -0.000702047  -0.164941205
|295> N  -0.012272036   0.003648953  -1.327227205
|296> *
|297> 
|298> 
|299> $new_job
|300> 
|301> # 4mecn.malloum.etal.dset.1mecn.dset-orca.engrad-mp2.def2tzvp
|302> ! MP2 def2-TZVP EnGrad TightSCF FrozenCore
|303> 
|304> %pal
|305>     nprocs 12
|306> end
|307> 
|308> %maxcore 8000
|309> 
|310> %scf
|311>     ConvForced true
|312> end
|313> 
|314> *xyz 0 1
|315> C   0.119778540  -1.271667910  -0.213774236
|316> H   0.469261540  -1.773946910   0.691824764
|317> H   0.835722540  -1.451688910  -1.019714236
|318> H  -0.856328460  -1.675030910  -0.498609236
|319> C  -0.010643460   0.162977090   0.028547764
|320> N  -0.125859460   1.303260090   0.218290764
|321> *
|322> 
|323> 
|324> $new_job
|325> 
|326> # 4mecn.malloum.etal.dset.1mecn.dset-orca.engrad-mp2.def2tzvp
|327> ! MP2 def2-TZVP EnGrad TightSCF FrozenCore
|328> 
|329> %pal
|330>     nprocs 12
|331> end
|332> 
|333> %maxcore 8000
|334> 
|335> %scf
|336>     ConvForced true
|337> end
|338> 
|339> *xyz 0 1
|340> C  -0.102914251   1.283508631   0.139508582
|341> H  -0.184420251   1.757705631  -0.841964418
|342> H   0.789409749   1.661200631   0.646471582
|343> H  -1.000084251   1.509779631   0.722299582
|344> C   0.012632749  -0.162891369  -0.019918418
|345> N   0.105839749  -1.315502369  -0.140447418
|346> *
|347> 
|348> 
|349> $new_job
|350> 
|351> # 4mecn.malloum.etal.dset.1mecn.dset-orca.engrad-mp2.def2tzvp
|352> ! MP2 def2-TZVP EnGrad TightSCF FrozenCore
|353> 
|354> %pal
|355>     nprocs 12
|356> end
|357> 
|358> %maxcore 8000
|359> 
|360> %scf
|361>     ConvForced true
|362> end
|363> 
|364> *xyz 0 1
|365> C   0.102915786  -1.283508606  -0.139505755
|366> H   0.184415786  -1.757703606   0.841969245
|367> H   1.000090786  -1.509780606  -0.722289755
|368> H  -0.789404214  -1.661202606  -0.646473755
|369> C  -0.012633214   0.162891394   0.019918245
|370> N  -0.105841214   1.315502394   0.140444245
|371> *
|372> 
|373> 
|374> $new_job
|375> 
|376> # 4mecn.malloum.etal.dset.1mecn.dset-orca.engrad-mp2.def2tzvp
|377> ! MP2 def2-TZVP EnGrad TightSCF FrozenCore
|378> 
|379> %pal
|380>     nprocs 12
|381> end
|382> 
|383> %maxcore 8000
|384> 
|385> %scf
|386>     ConvForced true
|387> end
|388> 
|389> *xyz 0 1
|390> C  -0.119783341   1.271667569   0.213772944
|391> H  -0.469268341   1.773944569  -0.691826056
|392> H   0.856322659   1.675034569   0.498608944
|393> H  -0.835727341   1.451686569   1.019712944
|394> C   0.010643659  -0.162977431  -0.028547056
|395> N   0.125864659  -1.303259431  -0.218290056
|396> *
|397> 
|398> 
|399> $new_job
|400> 
|401> # 4mecn.malloum.etal.dset.1mecn.dset-orca.engrad-mp2.def2tzvp
|402> ! MP2 def2-TZVP EnGrad TightSCF FrozenCore
|403> 
|404> %pal
|405>     nprocs 12
|406> end
|407> 
|408> %maxcore 8000
|409> 
|410> %scf
|411>     ConvForced true
|412> end
|413> 
|414> *xyz 0 1
|415> C   0.070534553  -0.039748250  -1.292488911
|416> H  -0.933386447  -0.077346250  -1.723041911
|417> H   0.626854553  -0.924901250  -1.611309911
|418> H   0.584542553   0.858490750  -1.646599911
|419> C  -0.010989447   0.001773750   0.165526089
|420> N  -0.071060447   0.042904750   1.324704089
|421> *
|422> 
|423> 
|424> $new_job
|425> 
|426> # 4mecn.malloum.etal.dset.1mecn.dset-orca.engrad-mp2.def2tzvp
|427> ! MP2 def2-TZVP EnGrad TightSCF FrozenCore
|428> 
|429> %pal
|430>     nprocs 12
|431> end
|432> 
|433> %maxcore 8000
|434> 
|435> %scf
|436>     ConvForced true
|437> end
|438> 
|439> *xyz 0 1
|440> C   0.001236822   0.001506489   1.295397536
|441> H   1.034781822  -0.037803511   1.651163536
|442> H  -0.549820178  -0.872984511   1.653228536
|443> H  -0.481027178   0.916565489   1.651124536
|444> C   0.000050822  -0.000200511  -0.163295464
|445> N  -0.001387178  -0.001535511  -1.327280464
|446> *
|447> 
|448> 
|449> $new_job
|450> 
|451> # 4mecn.malloum.etal.dset.1mecn.dset-orca.engrad-mp2.def2tzvp
|452> ! MP2 def2-TZVP EnGrad TightSCF FrozenCore
|453> 
|454> %pal
|455>     nprocs 12
|456> end
|457> 
|458> %maxcore 8000
|459> 
|460> %scf
|461>     ConvForced true
|462> end
|463> 
|464> *xyz 0 1
|465> C  -0.078132211  -0.050930297  -1.291660986
|466> H  -1.123886211  -0.117979297  -1.602388986
|467> H   0.462263789  -0.934152297  -1.644273986
|468> H   0.365888789   0.845981703  -1.731016986
|469> C   0.007993789   0.009822703   0.165415014
|470> N   0.081418789   0.050080703   1.323854014
|471> *
|472> 
|473> 
|474> $new_job
|475> 
|476> # 4mecn.malloum.etal.dset.1mecn.dset-orca.engrad-mp2.def2tzvp
|477> ! MP2 def2-TZVP EnGrad TightSCF FrozenCore
|478> 
|479> %pal
|480>     nprocs 12
|481> end
|482> 
|483> %maxcore 8000
|484> 
|485> %scf
|486>     ConvForced true
|487> end
|488> 
|489> *xyz 0 1
|490> C  -0.004022803   0.083310995  -1.292327591
|491> H   0.539958197  -0.760032005  -1.725332591
|492> H   0.472648197   1.014093995  -1.610232591
|493> H  -1.039325803   0.067492995  -1.644799591
|494> C   0.004282197  -0.010638005   0.165499409
|495> N   0.001700197  -0.085450005   1.324546409
|496> *
|497> 
|498> 
|499> $new_job
|500> 
|501> # 4mecn.malloum.etal.dset.1mecn.dset-orca.engrad-mp2.def2tzvp
|502> ! MP2 def2-TZVP EnGrad TightSCF FrozenCore
|503> 
|504> %pal
|505>     nprocs 12
|506> end
|507> 
|508> %maxcore 8000
|509> 
|510> %scf
|511>     ConvForced true
|512> end
|513> 
|514> *xyz 0 1
|515> C  -0.100681040   1.290345026   0.001300731
|516> H  -0.647807040   1.619390026  -0.886030269
|517> H   0.893808960   1.747693026  -0.001585269
|518> H  -0.641996040   1.618018026   0.892695731
|519> C   0.013330960  -0.165423974  -0.000187269
|520> N   0.103390960  -1.323251974  -0.001320269
|521> *
|522> 
|523> 
|524> $new_job
|525> 
|526> # 4mecn.malloum.etal.dset.1mecn.dset-orca.engrad-mp2.def2tzvp
|527> ! MP2 def2-TZVP EnGrad TightSCF FrozenCore
|528> 
|529> %pal
|530>     nprocs 12
|531> end
|532> 
|533> %maxcore 8000
|534> 
|535> %scf
|536>     ConvForced true
|537> end
|538> 
|539> *xyz 0 1
|540> C   1.290341418   0.100714769  -0.001462994
|541> H   1.747717418  -0.893761231   0.001506006
|542> H   1.619476418   0.647972769   0.885754006
|543> H   1.617898418   0.641913769  -0.892970994
|544> C  -0.165423582  -0.013332231   0.000208006
|545> N  -1.323248582  -0.103428231   0.001487006
|546> *
|547> 
|548> 
|549> $new_job
|550> 
|551> # 4mecn.malloum.etal.dset.1mecn.dset-orca.engrad-mp2.def2tzvp
|552> ! MP2 def2-TZVP EnGrad TightSCF FrozenCore
|553> 
|554> %pal
|555>     nprocs 12
|556> end
|557> 
|558> %maxcore 8000
|559> 
|560> %scf
|561>     ConvForced true
|562> end
|563> 
|564> *xyz 0 1
|565> C   0.100644775  -1.290347828   0.001414397
|566> H   0.647893775  -1.619476828  -0.885809603
|567> H  -0.893855225  -1.747671828  -0.001578603
|568> H   0.641818775  -1.617965828   0.892915397
|569> C  -0.013327225   0.165424172  -0.000201603
|570> N  -0.103353225   1.323255172  -0.001437603
|571> *
|572> 
|573> 
|574> $new_job
|575> 
|576> # 4mecn.malloum.etal.dset.1mecn.dset-orca.engrad-mp2.def2tzvp
|577> ! MP2 def2-TZVP EnGrad TightSCF FrozenCore
|578> 
|579> %pal
|580>     nprocs 12
|581> end
|582> 
|583> %maxcore 8000
|584> 
|585> %scf
|586>     ConvForced true
|587> end
|588> 
|589> *xyz 0 1
|590> C  -1.290343417  -0.100701877  -0.001191889
|591> H  -1.747710417   0.893778123   0.001684111
|592> H  -1.619308417  -0.647792877   0.886190111
|593> H  -1.618077417  -0.642062877  -0.892535889
|594> C   0.165423583   0.013334123   0.000174111
|595> N   1.323250583   0.103412123   0.001208111
|596> *
|597> 
|598>                          ****END OF INPUT****
================================================================================


                 $$$$$$$$$$$$$$$$$$$$$$$$$$$$$$$$$$$$$$$$$$$$$$ 
                 $ THERE ARE 24 JOBS TO BE PROCESSED THIS RUN $
                 $$$$$$$$$$$$$$$$$$$$$$$$$$$$$$$$$$$$$$$$$$$$$$ 




                 $$$$$$$$$$$$$$$$  JOB NUMBER  1 $$$$$$$$$$$$$$


                     *******************************
                     * Energy+Gradient Calculation *
                     *******************************

---------------------------------
CARTESIAN COORDINATES (ANGSTROEM)
---------------------------------
  C     -0.167510   -1.172565    0.523929
  H     -0.126502   -1.080410    1.613232
  H      0.634609   -1.839805    0.200403
  H     -1.137368   -1.577001    0.222873
  C      0.026910    0.148109   -0.067579
  N      0.165833    1.202005   -0.537827

----------------------------
CARTESIAN COORDINATES (A.U.)
----------------------------
  NO LB      ZA    FRAG     MASS         X           Y           Z
   0 C     6.0000    0    12.011   -0.316547   -2.215828    0.990081
   1 H     1.0000    0     1.008   -0.239053   -2.041680    3.048566
   2 H     1.0000    0     1.008    1.199238   -3.476728    0.378706
   3 H     1.0000    0     1.008   -2.149313   -2.980101    0.421168
   4 C     6.0000    0    12.011    0.050853    0.279885   -0.127707
   5 N     7.0000    0    14.007    0.313380    2.271459   -1.016347

--------------------------------
INTERNAL COORDINATES (ANGSTROEM)
--------------------------------
 C      0   0   0     0.000000000000     0.00000000     0.00000000
 H      1   0   0     1.093963082511     0.00000000     0.00000000
 H      1   2   0     1.092370441030   108.59259146     0.00000000
 H      1   2   3     1.093081759703   109.79613753   120.44813632
 C      1   2   3     1.460089266018   108.79629385   240.81986660
 N      5   1   2     1.162380987563   179.20811918   270.87083246

---------------------------
INTERNAL COORDINATES (A.U.)
---------------------------
 C      0   0   0     0.000000000000     0.00000000     0.00000000
 H      1   0   0     2.067290626567     0.00000000     0.00000000
 H      1   2   0     2.064280970338   108.59259146     0.00000000
 H      1   2   3     2.065625167824   109.79613753   120.44813632
 C      1   2   3     2.759168843851   108.79629385   240.81986660
 N      5   1   2     2.196581729772   179.20811918   270.87083246

---------------------
BASIS SET INFORMATION
---------------------
There are 3 groups of distinct atoms

 Group   1 Type C   : 11s6p2d1f contracted to 5s3p2d1f pattern {62111/411/11/1}
 Group   2 Type H   : 5s1p contracted to 3s1p pattern {311/1}
 Group   3 Type N   : 11s6p2d1f contracted to 5s3p2d1f pattern {62111/411/11/1}

Atom   0C    basis set group =>   1
Atom   1H    basis set group =>   2
Atom   2H    basis set group =>   2
Atom   3H    basis set group =>   2
Atom   4C    basis set group =>   1
Atom   5N    basis set group =>   3


           ************************************************************
           *        Program running with 12 parallel MPI-processes    *
           *              working on a common directory               *
           ************************************************************
------------------------------------------------------------------------------
                           ORCA GTO INTEGRAL CALCULATION
------------------------------------------------------------------------------

                         BASIS SET STATISTICS AND STARTUP INFO

 # of primitive gaussian shells          ...   78
 # of primitive gaussian functions       ...  162
 # of contracted shells                  ...   45
 # of contracted basis functions         ...  111
 Highest angular momentum                ...    3
 Maximum contraction depth               ...    6
 Integral package used                   ... LIBINT
 Integral threshhold            Thresh   ...  2.500e-11
 Primitive cut-off              TCut     ...  2.500e-12


------------------------------ INTEGRAL EVALUATION ----------------------------


 * One electron integrals 
 Pre-screening matrix                    ... done
 Shell pair data                         ... done (   0.000 sec)



           ************************************************************
           *        Program running with 12 parallel MPI-processes    *
           *              working on a common directory               *
           ************************************************************
-------------------------------------------------------------------------------
                                 ORCA SCF
-------------------------------------------------------------------------------

------------
SCF SETTINGS
------------
Hamiltonian:
 Ab initio Hamiltonian  Method          .... Hartree-Fock(GTOs)


General Settings:
 Integral files         IntName         .... 4mecn.malloum.etal.dset.1mecn.dset-orca.engrad-mp2.def2tzvp
 Hartree-Fock type      HFTyp           .... RHF
 Total Charge           Charge          ....    0
 Multiplicity           Mult            ....    1
 Number of Electrons    NEL             ....   22
 Basis Dimension        Dim             ....  111
 Nuclear Repulsion      ENuc            ....     58.3105188067 Eh

Convergence Acceleration:
 DIIS                   CNVDIIS         .... on
   Start iteration      DIISMaxIt       ....    12
   Startup error        DIISStart       ....  0.200000
   # of expansion vecs  DIISMaxEq       ....     5
   Bias factor          DIISBfac        ....   1.050
   Max. coefficient     DIISMaxC        ....  10.000
 Newton-Raphson         CNVNR           .... off
 SOSCF                  CNVSOSCF        .... on
   Start iteration      SOSCFMaxIt      ....   150
   Startup grad/error   SOSCFStart      ....  0.003300
 Level Shifting         CNVShift        .... on
   Level shift para.    LevelShift      ....    0.2500
   Turn off err/grad.   ShiftErr        ....    0.0010
 Zerner damping         CNVZerner       .... off
 Static damping         CNVDamp         .... on
   Fraction old density DampFac         ....    0.7000
   Max. Damping (<1)    DampMax         ....    0.9800
   Min. Damping (>=0)   DampMin         ....    0.0000
   Turn off err/grad.   DampErr         ....    0.1000
 Fernandez-Rico         CNVRico         .... off

SCF Procedure:
 Maximum # iterations   MaxIter         ....   125
 SCF integral mode      SCFMode         .... Direct
   Integral package                     .... LIBINT
 Reset frequency        DirectResetFreq ....    20
 Integral Threshold     Thresh          ....  2.500e-11 Eh
 Primitive CutOff       TCut            ....  2.500e-12 Eh

Convergence Tolerance:
 Convergence Check Mode ConvCheckMode   .... Total+1el-Energy
 Convergence forced     ConvForced      .... 1
 Energy Change          TolE            ....  1.000e-08 Eh
 1-El. energy change                    ....  1.000e-05 Eh
 Orbital Gradient       TolG            ....  1.000e-05
 Orbital Rotation angle TolX            ....  1.000e-05
 DIIS Error             TolErr          ....  5.000e-07


Diagonalization of the overlap matrix:
Smallest eigenvalue                        ... 1.719e-04
Time for diagonalization                   ...    0.002 sec
Threshold for overlap eigenvalues          ... 1.000e-08
Number of eigenvalues below threshold      ... 0
Time for construction of square roots      ...    0.002 sec
Total time needed                          ...    0.004 sec

-------------------
DFT GRID GENERATION
-------------------

General Integration Accuracy     IntAcc      ...  4.340
Radial Grid Type                 RadialGrid  ... Gauss-Chebyshev
Angular Grid (max. acc.)         AngularGrid ... Lebedev-110
Angular grid pruning method      GridPruning ... 3 (G Style)
Weight generation scheme         WeightScheme... Becke
Basis function cutoff            BFCut       ...    1.0000e-11
Integration weight cutoff        WCut        ...    1.0000e-14
Grids for H and He will be reduced by one unit

# of grid points (after initial pruning)     ...   7396 (   0.0 sec)
# of grid points (after weights+screening)   ...   7208 (   0.0 sec)
nearest neighbour list constructed           ...    0.0 sec
Grid point re-assignment to atoms done       ...    0.0 sec
Grid point division into batches done        ...    0.0 sec
Reduced shell lists constructed in    0.0 sec

Total number of grid points                  ...     7208
Total number of batches                      ...      116
Average number of points per batch           ...       62
Average number of grid points per atom       ...     1201
Average number of shells per batch           ...    37.64 (83.64%)
Average number of basis functions per batch  ...    95.45 (86.00%)
Average number of large shells per batch     ...    35.18 (93.48%)
Average number of large basis fcns per batch ...    87.36 (91.52%)
Maximum spatial batch extension              ...   2.03,  1.90,  2.29 au
Average spatial batch extension              ...   0.13,  0.13,  0.13 au

Time for grid setup =    0.017 sec

------------------------------
INITIAL GUESS: MODEL POTENTIAL
------------------------------
Loading Hartree-Fock densities                     ... done
Calculating cut-offs                               ... done
Setting up the integral package                    ... done
Initializing the effective Hamiltonian             ... done
Starting the Coulomb interaction                   ... done (   0.0 sec)
Reading the grid                                   ... done
Mapping shells                                     ... done
Starting the XC term evaluation                    ... done (   0.0 sec)
Transforming the Hamiltonian                       ... done (   0.0 sec)
Diagonalizing the Hamiltonian                      ... done (   0.0 sec)
Back transforming the eigenvectors                 ... done (   0.0 sec)
Now organizing SCF variables                       ... done
                      ------------------
                      INITIAL GUESS DONE (   0.1 sec)
                      ------------------
--------------
SCF ITERATIONS
--------------
ITER       Energy         Delta-E        Max-DP      RMS-DP      [F,P]     Damp
               ***  Starting incremental Fock matrix formation  ***
  0   -131.8083218612   0.000000000000 0.03792884  0.00147244  0.2803254 0.7000
  1   -131.8685411827  -0.060219321553 0.02710963  0.00116420  0.1877244 0.7000
                               ***Turning on DIIS***
  2   -131.9035505141  -0.035009331362 0.01611677  0.00075351  0.1420692 0.7000
  3   -132.2161752839  -0.312624769812 0.00974928  0.00047797  0.1055976 0.7000
  4   -132.2016940947   0.014481189256 0.02475393  0.00116666  0.0744337 0.0000
  5   -131.9852881777   0.216405916994 0.00582552  0.00021151  0.0060924 0.0000
                      *** Initiating the SOSCF procedure ***
                           *** Shutting down DIIS ***
                      *** Re-Reading the Fockian *** 
                      *** Removing any level shift *** 
ITER      Energy       Delta-E        Grad      Rot      Max-DP    RMS-DP
  6   -131.97890156   0.0063866165  0.001287  0.001287  0.004144  0.000133
               *** Restarting incremental Fock matrix formation ***
  7   -131.97551408   0.0033874824  0.000420  0.000614  0.002665  0.000094
  8   -131.97552027  -0.0000061868  0.000315  0.000531  0.002397  0.000078
  9   -131.97552153  -0.0000012652  0.000128  0.000160  0.000721  0.000023
 10   -131.97552178  -0.0000002495  0.000012  0.000010  0.000058  0.000002
 11   -131.97552178  -0.0000000027  0.000005  0.000008  0.000018  0.000001
                 **** Energy Check signals convergence ****
              ***Rediagonalizing the Fockian in SOSCF/NRSCF***

               *****************************************************
               *                     SUCCESS                       *
               *           SCF CONVERGED AFTER  12 CYCLES          *
               *****************************************************


----------------
TOTAL SCF ENERGY
----------------

Total Energy       :         -131.97552178 Eh           -3591.23652 eV

Components:
Nuclear Repulsion  :           58.31051881 Eh            1586.70988 eV
Electronic Energy  :         -190.28604059 Eh           -5177.94641 eV
One Electron Energy:         -292.90821054 Eh           -7970.43762 eV
Two Electron Energy:          102.62216995 Eh            2792.49121 eV

Virial components:
Potential Energy   :         -263.67707506 Eh           -7175.01798 eV
Kinetic Energy     :          131.70155328 Eh            3583.78146 eV
Virial Ratio       :            2.00208022


---------------
SCF CONVERGENCE
---------------

  Last Energy change         ...   -4.5193e-10  Tolerance :   1.0000e-08
  Last MAX-Density change    ...    7.3061e-06  Tolerance :   1.0000e-07
  Last RMS-Density change    ...    2.2951e-07  Tolerance :   5.0000e-09
  Last Orbital Gradient      ...    1.0761e-06  Tolerance :   1.0000e-05
  Last Orbital Rotation      ...    2.2324e-06  Tolerance :   1.0000e-05

             **** THE GBW FILE WAS UPDATED (4mecn.malloum.etal.dset.1mecn.dset-orca.engrad-mp2.def2tzvp.gbw) ****
             **** DENSITY FILE WAS UPDATED (4mecn.malloum.etal.dset.1mecn.dset-orca.engrad-mp2.def2tzvp.scfp) ****
             **** ENERGY FILE WAS UPDATED (4mecn.malloum.etal.dset.1mecn.dset-orca.engrad-mp2.def2tzvp.en.tmp) ****
             **** THE GBW FILE WAS UPDATED (4mecn.malloum.etal.dset.1mecn.dset-orca.engrad-mp2.def2tzvp.gbw) ****
             **** DENSITY FILE WAS UPDATED (4mecn.malloum.etal.dset.1mecn.dset-orca.engrad-mp2.def2tzvp.scfp) ****
----------------
ORBITAL ENERGIES
----------------

  NO   OCC          E(Eh)            E(eV) 
   0   2.0000     -15.572308      -423.7440 
   1   2.0000     -11.287016      -307.1353 
   2   2.0000     -11.279614      -306.9339 
   3   2.0000      -1.216387       -33.0996 
   4   2.0000      -1.041071       -28.3290 
   5   2.0000      -0.697440       -18.9783 
   6   2.0000      -0.632818       -17.2198 
   7   2.0000      -0.629834       -17.1387 
   8   2.0000      -0.555729       -15.1222 
   9   2.0000      -0.460132       -12.5208 
  10   2.0000      -0.459591       -12.5061 
  11   0.0000       0.118617         3.2277 
  12   0.0000       0.172337         4.6895 
  13   0.0000       0.172803         4.7022 
  14   0.0000       0.202359         5.5065 
  15   0.0000       0.223743         6.0884 
  16   0.0000       0.224475         6.1083 
  17   0.0000       0.261334         7.1112 
  18   0.0000       0.319279         8.6880 
  19   0.0000       0.323990         8.8162 
  20   0.0000       0.380994        10.3674 
  21   0.0000       0.381037        10.3686 
  22   0.0000       0.407633        11.0923 
  23   0.0000       0.496597        13.5131 
  24   0.0000       0.525042        14.2871 
  25   0.0000       0.585333        15.9277 
  26   0.0000       0.598803        16.2942 
  27   0.0000       0.600859        16.3502 
  28   0.0000       0.658038        17.9061 
  29   0.0000       0.659589        17.9483 
  30   0.0000       0.703609        19.1462 
  31   0.0000       0.807585        21.9755 
  32   0.0000       0.810848        22.0643 
  33   0.0000       0.815612        22.1939 
  34   0.0000       0.914519        24.8853 
  35   0.0000       0.916817        24.9479 
  36   0.0000       1.034964        28.1628 
  37   0.0000       1.121648        30.5216 
  38   0.0000       1.122653        30.5489 
  39   0.0000       1.318580        35.8804 
  40   0.0000       1.417220        38.5645 
  41   0.0000       1.420742        38.6604 
  42   0.0000       1.448105        39.4049 
  43   0.0000       1.470025        40.0014 
  44   0.0000       1.473928        40.1076 
  45   0.0000       1.511730        41.1363 
  46   0.0000       1.696265        46.1577 
  47   0.0000       1.696855        46.1738 
  48   0.0000       1.736184        47.2440 
  49   0.0000       1.745765        47.5047 
  50   0.0000       1.797698        48.9178 
  51   0.0000       1.801249        49.0145 
  52   0.0000       1.932319        52.5811 
  53   0.0000       1.934510        52.6407 
  54   0.0000       1.972925        53.6860 
  55   0.0000       2.225686        60.5640 
  56   0.0000       2.233424        60.7745 
  57   0.0000       2.250132        61.2292 
  58   0.0000       2.336705        63.5850 
  59   0.0000       2.545076        69.2550 
  60   0.0000       2.547458        69.3199 
  61   0.0000       2.574751        70.0625 
  62   0.0000       2.617448        71.2244 
  63   0.0000       2.624145        71.4066 
  64   0.0000       2.686029        73.0906 
  65   0.0000       2.739650        74.5497 
  66   0.0000       2.747064        74.7514 
  67   0.0000       2.914483        79.3071 
  68   0.0000       2.915166        79.3257 
  69   0.0000       2.942638        80.0732 
  70   0.0000       2.953881        80.3792 
  71   0.0000       3.022884        82.2569 
  72   0.0000       3.082768        83.8864 
  73   0.0000       3.091344        84.1197 
  74   0.0000       3.244326        88.2826 
  75   0.0000       3.245315        88.3095 
  76   0.0000       3.249412        88.4210 
  77   0.0000       3.325744        90.4981 
  78   0.0000       3.331116        90.6443 
  79   0.0000       3.441113        93.6374 
  80   0.0000       3.449177        93.8569 
  81   0.0000       3.489340        94.9498 
  82   0.0000       3.624843        98.6370 
  83   0.0000       3.652851        99.3991 
  84   0.0000       3.786148       103.0263 
  85   0.0000       3.794440       103.2520 
  86   0.0000       3.917508       106.6008 
  87   0.0000       3.942362       107.2771 
  88   0.0000       3.946796       107.3978 
  89   0.0000       4.239586       115.3650 
  90   0.0000       4.240918       115.4012 
  91   0.0000       4.343098       118.1817 
  92   0.0000       4.347633       118.3051 
  93   0.0000       4.556156       123.9793 
  94   0.0000       4.725356       128.5835 
  95   0.0000       4.745274       129.1255 
  96   0.0000       4.836654       131.6120 
  97   0.0000       4.961291       135.0036 
  98   0.0000       4.962514       135.0369 
  99   0.0000       5.066601       137.8692 
 100   0.0000       5.067354       137.8897 
 101   0.0000       5.212718       141.8453 
 102   0.0000       5.552224       151.0837 
 103   0.0000       5.552735       151.0976 
 104   0.0000       6.024649       163.9390 
 105   0.0000       6.089735       165.7101 
 106   0.0000       6.091542       165.7593 
 107   0.0000       6.475704       176.2129 
 108   0.0000      23.440915       637.8597 
 109   0.0000      24.363088       662.9533 
 110   0.0000      33.395759       908.7448 

                    ********************************
                    * MULLIKEN POPULATION ANALYSIS *
                    ********************************

-----------------------
MULLIKEN ATOMIC CHARGES
-----------------------
   0 C :   -0.168580
   1 H :    0.155051
   2 H :    0.155152
   3 H :    0.156308
   4 C :   -0.108558
   5 N :   -0.189374
Sum of atomic charges:    0.0000000

--------------------------------
MULLIKEN REDUCED ORBITAL CHARGES
--------------------------------
  0 C s       :     3.154441  s :     3.154441
      pz      :     1.031545  p :     2.948861
      px      :     1.073662
      py      :     0.843655
      dz2     :     0.018535  d :     0.061791
      dxz     :     0.005106
      dyz     :     0.010048
      dx2y2   :     0.011774
      dxy     :     0.016329
      f0      :     0.001326  f :     0.003486
      f+1     :     0.000042
      f-1     :     0.000231
      f+2     :     0.000388
      f-2     :     0.000140
      f+3     :     0.000333
      f-3     :     0.001026
  1 H s       :     0.822581  s :     0.822581
      pz      :     0.015257  p :     0.022368
      px      :     0.003673
      py      :     0.003438
  2 H s       :     0.822438  s :     0.822438
      pz      :     0.004567  p :     0.022410
      px      :     0.009779
      py      :     0.008064
  3 H s       :     0.821333  s :     0.821333
      pz      :     0.004384  p :     0.022359
      px      :     0.012807
      py      :     0.005167
  4 C s       :     3.238463  s :     3.238463
      pz      :     0.898630  p :     2.739817
      px      :     0.889621
      py      :     0.951566
      dz2     :     0.021958  d :     0.113100
      dxz     :     0.005755
      dyz     :     0.028943
      dx2y2   :     0.020484
      dxy     :     0.035959
      f0      :     0.000854  f :     0.017178
      f+1     :     0.000119
      f-1     :     0.004914
      f+2     :     0.002596
      f-2     :     0.002184
      f+3     :     0.004026
      f-3     :     0.002486
  5 N s       :     3.713110  s :     3.713110
      pz      :     1.102670  p :     3.418074
      px      :     1.068195
      py      :     1.247208
      dz2     :     0.009675  d :     0.055200
      dxz     :     0.003796
      dyz     :     0.014444
      dx2y2   :     0.009650
      dxy     :     0.017634
      f0      :     0.000133  f :     0.002992
      f+1     :     0.000018
      f-1     :     0.000878
      f+2     :     0.000423
      f-2     :     0.000411
      f+3     :     0.000716
      f-3     :     0.000414


                     *******************************
                     * LOEWDIN POPULATION ANALYSIS *
                     *******************************

----------------------
LOEWDIN ATOMIC CHARGES
----------------------
   0 C :   -0.243836
   1 H :    0.143242
   2 H :    0.142136
   3 H :    0.142374
   4 C :   -0.197415
   5 N :    0.013499

-------------------------------
LOEWDIN REDUCED ORBITAL CHARGES
-------------------------------
  0 C s       :     2.818007  s :     2.818007
      pz      :     1.054997  p :     3.143018
      px      :     1.061036
      py      :     1.026985
      dz2     :     0.072892  d :     0.258143
      dxz     :     0.014069
      dyz     :     0.047541
      dx2y2   :     0.049649
      dxy     :     0.073992
      f0      :     0.003926  f :     0.024668
      f+1     :     0.000859
      f-1     :     0.003312
      f+2     :     0.004870
      f-2     :     0.003957
      f+3     :     0.003011
      f-3     :     0.004733
  1 H s       :     0.795968  s :     0.795968
      pz      :     0.037726  p :     0.060790
      px      :     0.012197
      py      :     0.010868
  2 H s       :     0.796808  s :     0.796808
      pz      :     0.014508  p :     0.061056
      px      :     0.026766
      py      :     0.019782
  3 H s       :     0.796662  s :     0.796662
      pz      :     0.014030  p :     0.060964
      px      :     0.033226
      py      :     0.013707
  4 C s       :     2.842151  s :     2.842151
      pz      :     0.890230  p :     2.855465
      px      :     0.838364
      py      :     1.126871
      dz2     :     0.074143  d :     0.441269
      dxz     :     0.021847
      dyz     :     0.123975
      dx2y2   :     0.100449
      dxy     :     0.120855
      f0      :     0.004641  f :     0.058529
      f+1     :     0.000315
      f-1     :     0.013467
      f+2     :     0.011802
      f-2     :     0.006273
      f+3     :     0.011562
      f-3     :     0.010469
  5 N s       :     3.312257  s :     3.312257
      pz      :     1.102612  p :     3.547240
      px      :     1.030573
      py      :     1.414056
      dz2     :     0.016511  d :     0.112324
      dxz     :     0.005949
      dyz     :     0.033447
      dx2y2   :     0.028681
      dxy     :     0.027736
      f0      :     0.001288  f :     0.014680
      f+1     :     0.000062
      f-1     :     0.003100
      f+2     :     0.003178
      f-2     :     0.001554
      f+3     :     0.002725
      f-3     :     0.002773


                      *****************************
                      * MAYER POPULATION ANALYSIS *
                      *****************************

  NA   - Mulliken gross atomic population
  ZA   - Total nuclear charge
  QA   - Mulliken gross atomic charge
  VA   - Mayer's total valence
  BVA  - Mayer's bonded valence
  FA   - Mayer's free valence

  ATOM       NA         ZA         QA         VA         BVA        FA
  0 C      6.1686     6.0000    -0.1686     3.8086     3.8086    -0.0000
  1 H      0.8449     1.0000     0.1551     0.9622     0.9622    -0.0000
  2 H      0.8448     1.0000     0.1552     0.9622     0.9622    -0.0000
  3 H      0.8437     1.0000     0.1563     0.9623     0.9623     0.0000
  4 C      6.1086     6.0000    -0.1086     3.9213     3.9213     0.0000
  5 N      7.1894     7.0000    -0.1894     3.0374     3.0374     0.0000

  Mayer bond orders larger than 0.100000
B(  0-C ,  1-H ) :   0.9645 B(  0-C ,  2-H ) :   0.9641 B(  0-C ,  3-H ) :   0.9635 
B(  0-C ,  4-C ) :   0.9269 B(  4-C ,  5-N ) :   3.0136 

-------
TIMINGS
-------

Total SCF time: 0 days 0 hours 0 min 2 sec 

Total time                  ....       2.079 sec
Sum of individual times     ....       1.920 sec  ( 92.3%)

Fock matrix formation       ....       1.805 sec  ( 86.8%)
Diagonalization             ....       0.010 sec  (  0.5%)
Density matrix formation    ....       0.002 sec  (  0.1%)
Population analysis         ....       0.002 sec  (  0.1%)
Initial guess               ....       0.075 sec  (  3.6%)
Orbital Transformation      ....       0.000 sec  (  0.0%)
Orbital Orthonormalization  ....       0.000 sec  (  0.0%)
DIIS solution               ....       0.004 sec  (  0.2%)
SOSCF solution              ....       0.005 sec  (  0.3%)


           ************************************************************
           *        Program running with 12 parallel MPI-processes    *
           *              working on a common directory               *
           ************************************************************

------------------------------------------------------------------------------
                                ORCA  MP2 
------------------------------------------------------------------------------

Freezing NCore=6 chemical core electrons
MP2 will be done in the AO integral direct mode
The Q1-step will be done using symmetric double matrices
Dimension of the basis                    ...  111
Memory devoted for MP2                    ... 8000 MB   
Memory needed for all in one shot         ...    6 MB
Number of MOs that can be treated together... 1518      
MP2 density construction                  ... relaxed
The MP2 gradient is requested => amplitudes will be stored on disk
Total number of MOs              ...    8
Number of MOs treated per batch  ...    1 
Number of batches necessary      ...    1 
OPERATORS   0/  0 PASS   0
-----------------------------------------------
 MP2 CORRELATION ENERGY   :     -0.507603373 Eh
-----------------------------------------------


---------------------
MP2 DENSITY FORMATION
---------------------

Completing the external part of the density      ... done
Storing the unrelaxed density                    ... done

Calculating G(D)                                 ... done
Completing the Lagrangian                        ... done
Solving the Z-vector equations                   ... 

------------------------------------------------------------------------------
                           ORCA CP-SCF CALCULATION
------------------------------------------------------------------------------

Input orbitals are from        ... 4mecn.malloum.etal.dset.1mecn.dset-orca.engrad-mp2.def2tzvp.gbw
Input Perturbation             ... 4mecn.malloum.etal.dset.1mecn.dset-orca.engrad-mp2.def2tzvp.pin.tmp
Wavefunction output            ... 4mecn.malloum.etal.dset.1mecn.dset-orca.engrad-mp2.def2tzvp.pout.tmp
Perturbation mode              ... Real perturbation (singlet)
Solver                         ... POPLE
Max. number of iterations      ... 128
Convergence tolerance          ... 1.000e-08
Integral handling              ... Direct
Number of perturbations        ... 1
Number of operators            ... 1
Orbital ranges used for CP-SCF:
 Operator 0:  Orbitals   0... 10  to  11...110
Variables per vector in CP-SCF ... 1100
Number of vectors sought       ... 1
     CP-SCF ITERATION   0: 
     CP-SCF ITERATION   1:      0.000436925313
     CP-SCF ITERATION   2:      0.000091450805
     CP-SCF ITERATION   3:      0.000002002594
     CP-SCF ITERATION   4:      0.000000133864
     CP-SCF ITERATION   5:      0.000000017399
     CP-SCF ITERATION   6:      0.000000002502
                                                 ... done
Finalizing the relaxed density                   ... done
Transforming P to the AO basis                   ... done
Storing the relaxed density                      ... done

------------------------------------
ENERGY WEIGHTED DENSITY FINALIZATION
------------------------------------

Gathering the parts of the W-matrix              ...                                                      done
Forming the Z-density                            ... done
Transforming Z to the AO basis                   ... done
Calculating G(Z)                                 ... done
Finalizing the W-matrix                          ...                                                      done
Transforming W to the AO basis and storing       ... done

                *********************************************
                * UNRELAXED MP2 DENSITY POPULATION ANALYSIS *
                *********************************************

------------------------------------------------------------------------------
                           ORCA POPULATION ANALYSIS
------------------------------------------------------------------------------
Input electron density              ... 4mecn.malloum.etal.dset.1mecn.dset-orca.engrad-mp2.def2tzvp.pmp2ur
BaseName (.gbw .S,...)              ... 4mecn.malloum.etal.dset.1mecn.dset-orca.engrad-mp2.def2tzvp

                    ********************************
                    * MULLIKEN POPULATION ANALYSIS *
                    ********************************

-----------------------
MULLIKEN ATOMIC CHARGES
-----------------------
   0 C :   -0.181725
   1 H :    0.157632
   2 H :    0.157737
   3 H :    0.158886
   4 C :   -0.117133
   5 N :   -0.175397
Sum of atomic charges:    0.0000000

--------------------------------
MULLIKEN REDUCED ORBITAL CHARGES
--------------------------------
  0 C s       :     3.152716  s :     3.152716
      pz      :     1.025824  p :     2.934522
      px      :     1.067150
      py      :     0.841548
      dz2     :     0.023546  d :     0.087165
      dxz     :     0.010994
      dyz     :     0.014778
      dx2y2   :     0.016077
      dxy     :     0.021771
      f0      :     0.001796  f :     0.007322
      f+1     :     0.000609
      f-1     :     0.000863
      f+2     :     0.000875
      f-2     :     0.000703
      f+3     :     0.000944
      f-3     :     0.001531
  1 H s       :     0.817176  s :     0.817176
      pz      :     0.015983  p :     0.025192
      px      :     0.004719
      py      :     0.004490
  2 H s       :     0.817032  s :     0.817032
      pz      :     0.005593  p :     0.025231
      px      :     0.010670
      py      :     0.008968
  3 H s       :     0.815943  s :     0.815943
      pz      :     0.005412  p :     0.025171
      px      :     0.013605
      py      :     0.006154
  4 C s       :     3.237726  s :     3.237726
      pz      :     0.897022  p :     2.730407
      px      :     0.889105
      py      :     0.944279
      dz2     :     0.025308  d :     0.128868
      dxz     :     0.009860
      dyz     :     0.031601
      dx2y2   :     0.023608
      dxy     :     0.038491
      f0      :     0.001282  f :     0.020133
      f+1     :     0.000478
      f-1     :     0.005345
      f+2     :     0.002972
      f-2     :     0.002631
      f+3     :     0.004467
      f-3     :     0.002959
  5 N s       :     3.700430  s :     3.700430
      pz      :     1.094907  p :     3.392176
      px      :     1.061335
      py      :     1.235934
      dz2     :     0.014144  d :     0.077094
      dxz     :     0.008499
      dyz     :     0.018642
      dx2y2   :     0.014012
      dxy     :     0.021798
      f0      :     0.000500  f :     0.005697
      f+1     :     0.000344
      f-1     :     0.001300
      f+2     :     0.000791
      f-2     :     0.000806
      f+3     :     0.001132
      f-3     :     0.000824


                     *******************************
                     * LOEWDIN POPULATION ANALYSIS *
                     *******************************

----------------------
LOEWDIN ATOMIC CHARGES
----------------------
   0 C :   -0.251805
   1 H :    0.144927
   2 H :    0.143839
   3 H :    0.144090
   4 C :   -0.202678
   5 N :    0.021626

-------------------------------
LOEWDIN REDUCED ORBITAL CHARGES
-------------------------------
  0 C s       :     2.816197  s :     2.816197
      pz      :     1.046973  p :     3.118747
      px      :     1.053077
      py      :     1.018697
      dz2     :     0.078600  d :     0.286254
      dxz     :     0.019777
      dyz     :     0.053053
      dx2y2   :     0.055090
      dxy     :     0.079734
      f0      :     0.004846  f :     0.030607
      f+1     :     0.001507
      f-1     :     0.004242
      f+2     :     0.005648
      f-2     :     0.004750
      f+3     :     0.003917
      f-3     :     0.005696
  1 H s       :     0.789531  s :     0.789531
      pz      :     0.040035  p :     0.065542
      px      :     0.013385
      py      :     0.012122
  2 H s       :     0.790361  s :     0.790361
      pz      :     0.015791  p :     0.065800
      px      :     0.028533
      py      :     0.021475
  3 H s       :     0.790224  s :     0.790224
      pz      :     0.015298  p :     0.065686
      px      :     0.035264
      py      :     0.015124
  4 C s       :     2.838848  s :     2.838848
      pz      :     0.885592  p :     2.836606
      px      :     0.834990
      py      :     1.116024
      dz2     :     0.077524  d :     0.461051
      dxz     :     0.026002
      dyz     :     0.128435
      dx2y2   :     0.105835
      dxy     :     0.123255
      f0      :     0.005353  f :     0.066172
      f+1     :     0.000738
      f-1     :     0.015160
      f+2     :     0.012882
      f-2     :     0.007334
      f+3     :     0.013054
      f-3     :     0.011652
  5 N s       :     3.304458  s :     3.304458
      pz      :     1.092282  p :     3.512958
      px      :     1.021320
      py      :     1.399356
      dz2     :     0.022163  d :     0.141841
      dxz     :     0.011040
      dyz     :     0.039855
      dx2y2   :     0.034786
      dxy     :     0.033998
      f0      :     0.001795  f :     0.019115
      f+1     :     0.000402
      f-1     :     0.003917
      f+2     :     0.003883
      f-2     :     0.002149
      f+3     :     0.003480
      f-3     :     0.003490


                      *****************************
                      * MAYER POPULATION ANALYSIS *
                      *****************************

  NA   - Mulliken gross atomic population
  ZA   - Total nuclear charge
  QA   - Mulliken gross atomic charge
  VA   - Mayer's total valence
  BVA  - Mayer's bonded valence
  FA   - Mayer's free valence

  ATOM       NA         ZA         QA         VA         BVA        FA
  0 C      6.1817     6.0000    -0.1817     3.9257     3.6428     0.2829
  1 H      0.8424     1.0000     0.1576     0.9697     0.9222     0.0476
  2 H      0.8423     1.0000     0.1577     0.9698     0.9224     0.0474
  3 H      0.8411     1.0000     0.1589     0.9698     0.9225     0.0473
  4 C      6.1171     6.0000    -0.1171     4.0232     3.5863     0.4369
  5 N      7.1754     7.0000    -0.1754     3.2322     2.7498     0.4824

  Mayer bond orders larger than 0.100000
B(  0-C ,  1-H ) :   0.9270 B(  0-C ,  2-H ) :   0.9267 B(  0-C ,  3-H ) :   0.9262 
B(  0-C ,  4-C ) :   0.8749 B(  4-C ,  5-N ) :   2.7325 


                *******************************************
                * RELAXED MP2 DENSITY POPULATION ANALYSIS *
                *******************************************

------------------------------------------------------------------------------
                           ORCA POPULATION ANALYSIS
------------------------------------------------------------------------------
Input electron density              ... 4mecn.malloum.etal.dset.1mecn.dset-orca.engrad-mp2.def2tzvp.pmp2re
BaseName (.gbw .S,...)              ... 4mecn.malloum.etal.dset.1mecn.dset-orca.engrad-mp2.def2tzvp

                    ********************************
                    * MULLIKEN POPULATION ANALYSIS *
                    ********************************

-----------------------
MULLIKEN ATOMIC CHARGES
-----------------------
   0 C :   -0.281199
   1 H :    0.171553
   2 H :    0.171561
   3 H :    0.172286
   4 C :   -0.149054
   5 N :   -0.085146
Sum of atomic charges:    0.0000000

--------------------------------
MULLIKEN REDUCED ORBITAL CHARGES
--------------------------------
  0 C s       :     3.188098  s :     3.188098
      pz      :     1.045374  p :     3.009482
      px      :     1.082119
      py      :     0.881989
      dz2     :     0.020112  d :     0.076569
      dxz     :     0.009648
      dyz     :     0.013347
      dx2y2   :     0.013466
      dxy     :     0.019996
      f0      :     0.001671  f :     0.007051
      f+1     :     0.000604
      f-1     :     0.000897
      f+2     :     0.000789
      f-2     :     0.000701
      f+3     :     0.000955
      f-3     :     0.001434
  1 H s       :     0.804394  s :     0.804394
      pz      :     0.014343  p :     0.024053
      px      :     0.004940
      py      :     0.004769
  2 H s       :     0.804353  s :     0.804353
      pz      :     0.005694  p :     0.024086
      px      :     0.009914
      py      :     0.008479
  3 H s       :     0.803689  s :     0.803689
      pz      :     0.005529  p :     0.024025
      px      :     0.012367
      py      :     0.006129
  4 C s       :     3.218618  s :     3.218618
      pz      :     0.921148  p :     2.806980
      px      :     0.909296
      py      :     0.976536
      dz2     :     0.020764  d :     0.104661
      dxz     :     0.008289
      dyz     :     0.025489
      dx2y2   :     0.019666
      dxy     :     0.030452
      f0      :     0.001241  f :     0.018796
      f+1     :     0.000467
      f-1     :     0.004910
      f+2     :     0.002815
      f-2     :     0.002446
      f+3     :     0.004120
      f-3     :     0.002796
  5 N s       :     3.641306  s :     3.641306
      pz      :     1.087866  p :     3.370488
      px      :     1.056150
      py      :     1.226472
      dz2     :     0.012453  d :     0.068127
      dxz     :     0.007815
      dyz     :     0.016456
      dx2y2   :     0.012793
      dxy     :     0.018610
      f0      :     0.000476  f :     0.005226
      f+1     :     0.000341
      f-1     :     0.001169
      f+2     :     0.000719
      f-2     :     0.000744
      f+3     :     0.001023
      f-3     :     0.000755


                     *******************************
                     * LOEWDIN POPULATION ANALYSIS *
                     *******************************

----------------------
LOEWDIN ATOMIC CHARGES
----------------------
   0 C :   -0.282596
   1 H :    0.151717
   2 H :    0.150572
   3 H :    0.150729
   4 C :   -0.217238
   5 N :    0.046816

-------------------------------
LOEWDIN REDUCED ORBITAL CHARGES
-------------------------------
  0 C s       :     2.821124  s :     2.821124
      pz      :     1.058007  p :     3.155954
      px      :     1.062466
      py      :     1.035482
      dz2     :     0.075314  d :     0.274771
      dxz     :     0.018675
      dyz     :     0.050923
      dx2y2   :     0.051168
      dxy     :     0.078690
      f0      :     0.004674  f :     0.030747
      f+1     :     0.001506
      f-1     :     0.004517
      f+2     :     0.005516
      f-2     :     0.004855
      f+3     :     0.004087
      f-3     :     0.005592
  1 H s       :     0.782435  s :     0.782435
      pz      :     0.039152  p :     0.065848
      px      :     0.013879
      py      :     0.012817
  2 H s       :     0.783328  s :     0.783328
      pz      :     0.016237  p :     0.066100
      px      :     0.028310
      py      :     0.021553
  3 H s       :     0.783311  s :     0.783311
      pz      :     0.015755  p :     0.065960
      px      :     0.034648
      py      :     0.015557
  4 C s       :     2.844360  s :     2.844360
      pz      :     0.898781  p :     2.861396
      px      :     0.850936
      py      :     1.111680
      dz2     :     0.073578  d :     0.445260
      dxz     :     0.024760
      dyz     :     0.125459
      dx2y2   :     0.105370
      dxy     :     0.116092
      f0      :     0.005551  f :     0.066222
      f+1     :     0.000722
      f-1     :     0.014762
      f+2     :     0.013207
      f-2     :     0.007281
      f+3     :     0.012825
      f-3     :     0.011875
  5 N s       :     3.304528  s :     3.304528
      pz      :     1.086188  p :     3.491454
      px      :     1.017413
      py      :     1.387853
      dz2     :     0.021253  d :     0.137707
      dxz     :     0.010625
      dyz     :     0.039056
      dx2y2   :     0.034673
      dxy     :     0.032099
      f0      :     0.001815  f :     0.019496
      f+1     :     0.000404
      f-1     :     0.004027
      f+2     :     0.003943
      f-2     :     0.002196
      f+3     :     0.003565
      f-3     :     0.003546


                      *****************************
                      * MAYER POPULATION ANALYSIS *
                      *****************************

  NA   - Mulliken gross atomic population
  ZA   - Total nuclear charge
  QA   - Mulliken gross atomic charge
  VA   - Mayer's total valence
  BVA  - Mayer's bonded valence
  FA   - Mayer's free valence

  ATOM       NA         ZA         QA         VA         BVA        FA
  0 C      6.2812     6.0000    -0.2812     3.9299     3.6482     0.2817
  1 H      0.8284     1.0000     0.1716     0.9635     0.9165     0.0470
  2 H      0.8284     1.0000     0.1716     0.9637     0.9169     0.0468
  3 H      0.8277     1.0000     0.1723     0.9639     0.9171     0.0467
  4 C      6.1491     6.0000    -0.1491     4.1475     3.7212     0.4263
  5 N      7.0851     7.0000    -0.0851     3.3455     2.8753     0.4702

  Mayer bond orders larger than 0.100000
B(  0-C ,  1-H ) :   0.9177 B(  0-C ,  2-H ) :   0.9176 B(  0-C ,  3-H ) :   0.9171 
B(  0-C ,  4-C ) :   0.8994 B(  4-C ,  5-N ) :   2.8412 


----------------------------------
MP2 DERIVATIVE INTEGRAL GENERATION
----------------------------------


Input Wavefunction Amplitudes       ... 4mecn.malloum.etal.dset.1mecn.dset-orca.engrad-mp2.def2tzvp.mp2tsaa.tmp
Input Correlated Electron Density   ... 4mecn.malloum.etal.dset.1mecn.dset-orca.engrad-mp2.def2tzvp.pmp2re
Input Energy Weighted Density       ... 4mecn.malloum.etal.dset.1mecn.dset-orca.engrad-mp2.def2tzvp.wmp2.tmp
Input SCF Electron Density          ... 4mecn.malloum.etal.dset.1mecn.dset-orca.engrad-mp2.def2tzvp.scfp

One-Electron Terms    ...
                        ... One-Electron Terms done
Prescreening matrices              ... done

Batch handling in the gradient evaluation:
Memory available                      ... 8000.0 MB
Memory per occupied orbital in Q2     ...    0.8 MB
Memory per occupied orbital in Q3     ...    0.0 MB
Total memory requirement per |i>      ...    0.8 MB
Max. Number of orbitals possible      ...  10081
Number of orbitals treated per batch  ...      8
Number of batches to be done          ...      1
Batch   0: i=    3 ...    10

---------------------------------------
MP2 TOTAL ENERGY:     -132.483125157 Eh
---------------------------------------

The final MP2 gradient
  0:  -0.00218765  -0.00261412  -0.00180395
  1:   0.00144948   0.00186236   0.00275740
  2:   0.00282283  -0.00018161  -0.00020216
  3:  -0.00316258  -0.00022617  -0.00123777
  4:   0.00314042   0.01265151  -0.00458201
  5:  -0.00206249  -0.01149197   0.00506848

-----------------------------------
NORM OF THE MP2 GRADIENT:  0.020015
-----------------------------------

-------------------------   --------------------
FINAL SINGLE POINT ENERGY      -132.483125156535
-------------------------   --------------------


                            ***************************************
                            *     ORCA property calculations      *
                            ***************************************

                                    ---------------------
                                    Active property flags
                                    ---------------------
   (+) Dipole Moment


------------------------------------------------------------------------------
                       ORCA ELECTRIC PROPERTIES CALCULATION
------------------------------------------------------------------------------

Dipole Moment Calculation                       ... on
Quadrupole Moment Calculation                   ... off
Polarizability Calculation                      ... off
GBWName                                         ... 4mecn.malloum.etal.dset.1mecn.dset-orca.engrad-mp2.def2tzvp.gbw
[...]
--------------------------------
  0 C s       :     3.151303  s :     3.151303
      pz      :     1.073830  p :     2.938533
      px      :     0.792502
      py      :     1.072201
      dz2     :     0.017108  d :     0.087372
      dxz     :     0.016288
      dyz     :     0.017392
      dx2y2   :     0.017884
      dxy     :     0.018699
      f0      :     0.000683  f :     0.007317
      f+1     :     0.001087
      f-1     :     0.001707
      f+2     :     0.000750
      f-2     :     0.000609
      f+3     :     0.001629
      f-3     :     0.000851
  1 H s       :     0.816323  s :     0.816323
      pz      :     0.004739  p :     0.025141
      px      :     0.006573
      py      :     0.013829
  2 H s       :     0.816601  s :     0.816601
      pz      :     0.012063  p :     0.025209
      px      :     0.005578
      py      :     0.007568
  3 H s       :     0.816600  s :     0.816600
      pz      :     0.012130  p :     0.025209
      px      :     0.005570
      py      :     0.007509
  4 C s       :     3.237535  s :     3.237535
      pz      :     0.886152  p :     2.730481
      px      :     0.957193
      py      :     0.887136
      dz2     :     0.010902  d :     0.128894
      dxz     :     0.044465
      dyz     :     0.005357
      dx2y2   :     0.023420
      dxy     :     0.044751
      f0      :     0.002770  f :     0.020143
      f+1     :     0.002065
      f-1     :     0.000678
      f+2     :     0.004323
      f-2     :     0.000705
      f+3     :     0.003215
      f-3     :     0.006387
  5 N s       :     3.699650  s :     3.699650
      pz      :     1.058876  p :     3.390919
      px      :     1.272744
      py      :     1.059300
      dz2     :     0.007536  d :     0.077069
      dxz     :     0.025764
      dyz     :     0.004970
      dx2y2   :     0.013223
      dxy     :     0.025575
      f0      :     0.000787  f :     0.005701
      f+1     :     0.000649
      f-1     :     0.000364
      f+2     :     0.001110
      f-2     :     0.000433
      f+3     :     0.000847
      f-3     :     0.001512


                     *******************************
                     * LOEWDIN POPULATION ANALYSIS *
                     *******************************

----------------------
LOEWDIN ATOMIC CHARGES
----------------------
   0 C :   -0.252688
   1 H :    0.144092
   2 H :    0.143996
   3 H :    0.143998
   4 C :   -0.202170
   5 N :    0.022772

-------------------------------
LOEWDIN REDUCED ORBITAL CHARGES
-------------------------------
  0 C s       :     2.816023  s :     2.816023
      pz      :     1.055217  p :     3.119708
      px      :     1.009850
      py      :     1.054640
      dz2     :     0.047576  d :     0.286456
      dxz     :     0.060951
      dyz     :     0.041244
      dx2y2   :     0.065761
      dxy     :     0.070924
      f0      :     0.002565  f :     0.030501
      f+1     :     0.004850
      f-1     :     0.004245
      f+2     :     0.004283
      f-2     :     0.002569
      f+3     :     0.006752
      f-3     :     0.005236
  1 H s       :     0.790423  s :     0.790423
      pz      :     0.013428  p :     0.065485
      px      :     0.015651
      py      :     0.036406
  2 H s       :     0.790289  s :     0.790289
      pz      :     0.031786  p :     0.065715
      px      :     0.013524
      py      :     0.020405
  3 H s       :     0.790288  s :     0.790288
      pz      :     0.031947  p :     0.065714
      px      :     0.013507
      py      :     0.020260
  4 C s       :     2.838544  s :     2.838544
      pz      :     0.828949  p :     2.837074
      px      :     1.176689
      py      :     0.831435
      dz2     :     0.043841  d :     0.460289
      dxz     :     0.143400
      dyz     :     0.006360
      dx2y2   :     0.121865
      dxy     :     0.144822
      f0      :     0.007601  f :     0.066264
      f+1     :     0.009655
      f-1     :     0.001517
      f+2     :     0.012127
      f-2     :     0.001082
      f+3     :     0.015746
      f-3     :     0.018536
  5 N s       :     3.303784  s :     3.303784
      pz      :     1.015036  p :     3.512235
      px      :     1.480048
      py      :     1.017152
      dz2     :     0.016815  d :     0.142013
      dxz     :     0.039547
      dyz     :     0.004976
      dx2y2   :     0.040876
      dxy     :     0.039800
      f0      :     0.002100  f :     0.019196
      f+1     :     0.003065
      f-1     :     0.000596
      f+2     :     0.003249
      f-2     :     0.000502
      f+3     :     0.004846
      f-3     :     0.004836


                      *****************************
                      * MAYER POPULATION ANALYSIS *
                      *****************************

  NA   - Mulliken gross atomic population
  ZA   - Total nuclear charge
  QA   - Mulliken gross atomic charge
  VA   - Mayer's total valence
  BVA  - Mayer's bonded valence
  FA   - Mayer's free valence

  ATOM       NA         ZA         QA         VA         BVA        FA
  0 C      6.1845     6.0000    -0.1845     3.9275     3.6442     0.2833
  1 H      0.8415     1.0000     0.1585     0.9695     0.9220     0.0475
  2 H      0.8418     1.0000     0.1582     0.9696     0.9221     0.0475
  3 H      0.8418     1.0000     0.1582     0.9696     0.9221     0.0475
  4 C      6.1171     6.0000    -0.1171     4.0253     3.5893     0.4360
  5 N      7.1733     7.0000    -0.1733     3.2319     2.7503     0.4816

  Mayer bond orders larger than 0.100000
B(  0-C ,  1-H ) :   0.9263 B(  0-C ,  2-H ) :   0.9266 B(  0-C ,  3-H ) :   0.9266 
B(  0-C ,  4-C ) :   0.8767 B(  4-C ,  5-N ) :   2.7331 


                *******************************************
                * RELAXED MP2 DENSITY POPULATION ANALYSIS *
                *******************************************

------------------------------------------------------------------------------
                           ORCA POPULATION ANALYSIS
------------------------------------------------------------------------------
Input electron density              ... 4mecn.malloum.etal.dset.1mecn.dset-orca.engrad-mp2.def2tzvp_job24.pmp2re
BaseName (.gbw .S,...)              ... 4mecn.malloum.etal.dset.1mecn.dset-orca.engrad-mp2.def2tzvp_job24

                    ********************************
                    * MULLIKEN POPULATION ANALYSIS *
                    ********************************

-----------------------
MULLIKEN ATOMIC CHARGES
-----------------------
   0 C :   -0.284103
   1 H :    0.172239
   2 H :    0.172024
   3 H :    0.172024
   4 C :   -0.149033
   5 N :   -0.083151
Sum of atomic charges:    0.0000000

--------------------------------
MULLIKEN REDUCED ORBITAL CHARGES
--------------------------------
  0 C s       :     3.186763  s :     3.186763
      pz      :     1.088143  p :     3.013519
      px      :     0.838542
      py      :     1.086834
      dz2     :     0.013649  d :     0.076775
      dxz     :     0.016600
      dyz     :     0.013986
      dx2y2   :     0.014177
      dxy     :     0.018363
      f0      :     0.000705  f :     0.007046
      f+1     :     0.000995
      f-1     :     0.001595
      f+2     :     0.000782
      f-2     :     0.000600
      f+3     :     0.001475
      f-3     :     0.000894
  1 H s       :     0.803766  s :     0.803766
      pz      :     0.004963  p :     0.023995
      px      :     0.006465
      py      :     0.012568
  2 H s       :     0.803912  s :     0.803912
      pz      :     0.011089  p :     0.024064
      px      :     0.005648
      py      :     0.007326
  3 H s       :     0.803911  s :     0.803911
      pz      :     0.011145  p :     0.024064
      px      :     0.005641
      py      :     0.007278
  4 C s       :     3.218665  s :     3.218665
      pz      :     0.907377  p :     2.806871
      px      :     0.991669
      py      :     0.907825
      dz2     :     0.009741  d :     0.104688
      dxz     :     0.034745
      dyz     :     0.005245
      dx2y2   :     0.019862
      dxy     :     0.035095
      f0      :     0.002555  f :     0.018809
      f+1     :     0.001995
      f-1     :     0.000642
      f+2     :     0.003976
      f-2     :     0.000690
      f+3     :     0.003081
      f-3     :     0.005870
  5 N s       :     3.640369  s :     3.640369
      pz      :     1.052966  p :     3.369451
      px      :     1.262581
      py      :     1.053904
      dz2     :     0.007290  d :     0.068103
      dxz     :     0.021802
      dyz     :     0.004948
      dx2y2   :     0.012405
      dxy     :     0.021659
      f0      :     0.000720  f :     0.005229
      f+1     :     0.000606
      f-1     :     0.000352
      f+2     :     0.001001
      f-2     :     0.000430
      f+3     :     0.000770
      f-3     :     0.001349


                     *******************************
                     * LOEWDIN POPULATION ANALYSIS *
                     *******************************

----------------------
LOEWDIN ATOMIC CHARGES
----------------------
   0 C :   -0.283452
   1 H :    0.150824
   2 H :    0.150732
   3 H :    0.150733
   4 C :   -0.216625
   5 N :    0.047788

-------------------------------
LOEWDIN REDUCED ORBITAL CHARGES
-------------------------------
  0 C s       :     2.820978  s :     2.820978
      pz      :     1.064613  p :     3.156822
      px      :     1.028108
      py      :     1.064101
      dz2     :     0.043235  d :     0.275014
      dxz     :     0.062591
      dyz     :     0.037748
      dx2y2   :     0.059674
      dxy     :     0.071765
      f0      :     0.002713  f :     0.030638
      f+1     :     0.004655
      f-1     :     0.004165
      f+2     :     0.004525
      f-2     :     0.002555
      f+3     :     0.006461
      f-3     :     0.005564
  1 H s       :     0.783409  s :     0.783409
      pz      :     0.013915  p :     0.065766
      px      :     0.016043
      py      :     0.035808
  2 H s       :     0.783260  s :     0.783260
      pz      :     0.031396  p :     0.066009
      px      :     0.014065
      py      :     0.020548
  3 H s       :     0.783258  s :     0.783258
      pz      :     0.031549  p :     0.066008
      px      :     0.014048
      py      :     0.020411
  4 C s       :     2.844116  s :     2.844116
      pz      :     0.845965  p :     2.861656
      px      :     1.167774
      py      :     0.847917
      dz2     :     0.044357  d :     0.444526
      dxz     :     0.134546
      dyz     :     0.006198
      dx2y2   :     0.123314
      dxy     :     0.136112
      f0      :     0.007430  f :     0.066327
      f+1     :     0.010011
      f-1     :     0.001495
      f+2     :     0.011869
      f-2     :     0.001042
      f+3     :     0.016325
      f-3     :     0.018155
  5 N s       :     3.303837  s :     3.303837
      pz      :     1.010662  p :     3.490936
      px      :     1.467171
      py      :     1.013104
      dz2     :     0.016983  d :     0.137864
      dxz     :     0.037165
      dyz     :     0.004964
      dx2y2   :     0.041310
      dxy     :     0.037442
      f0      :     0.002154  f :     0.019575
      f+1     :     0.003102
      f-1     :     0.000605
      f+2     :     0.003336
      f-2     :     0.000504
      f+3     :     0.004911
      f-3     :     0.004963


                      *****************************
                      * MAYER POPULATION ANALYSIS *
                      *****************************

  NA   - Mulliken gross atomic population
  ZA   - Total nuclear charge
  QA   - Mulliken gross atomic charge
  VA   - Mayer's total valence
  BVA  - Mayer's bonded valence
  FA   - Mayer's free valence

  ATOM       NA         ZA         QA         VA         BVA        FA
  0 C      6.2841     6.0000    -0.2841     3.9315     3.6493     0.2821
  1 H      0.8278     1.0000     0.1722     0.9634     0.9165     0.0469
  2 H      0.8280     1.0000     0.1720     0.9634     0.9165     0.0469
  3 H      0.8280     1.0000     0.1720     0.9634     0.9165     0.0469
  4 C      6.1490     6.0000    -0.1490     4.1497     3.7242     0.4255
  5 N      7.0832     7.0000    -0.0832     3.3451     2.8757     0.4695

  Mayer bond orders larger than 0.100000
B(  0-C ,  1-H ) :   0.9171 B(  0-C ,  2-H ) :   0.9174 B(  0-C ,  3-H ) :   0.9174 
B(  0-C ,  4-C ) :   0.9013 B(  4-C ,  5-N ) :   2.8416 


----------------------------------
MP2 DERIVATIVE INTEGRAL GENERATION
----------------------------------


Input Wavefunction Amplitudes       ... 4mecn.malloum.etal.dset.1mecn.dset-orca.engrad-mp2.def2tzvp_job24.mp2tsaa.tmp
Input Correlated Electron Density   ... 4mecn.malloum.etal.dset.1mecn.dset-orca.engrad-mp2.def2tzvp_job24.pmp2re
Input Energy Weighted Density       ... 4mecn.malloum.etal.dset.1mecn.dset-orca.engrad-mp2.def2tzvp_job24.wmp2.tmp
Input SCF Electron Density          ... 4mecn.malloum.etal.dset.1mecn.dset-orca.engrad-mp2.def2tzvp_job24.scfp

One-Electron Terms    ...
                        ... One-Electron Terms done
Prescreening matrices              ... done

Batch handling in the gradient evaluation:
Memory available                      ... 8000.0 MB
Memory per occupied orbital in Q2     ...    0.8 MB
Memory per occupied orbital in Q3     ...    0.0 MB
Total memory requirement per |i>      ...    0.8 MB
Max. Number of orbitals possible      ...  10081
Number of orbitals treated per batch  ...      8
Number of batches to be done          ...      1
Batch   0: i=    3 ...    10

---------------------------------------
MP2 TOTAL ENERGY:     -132.483172058 Eh
---------------------------------------

The final MP2 gradient
  0:   0.00053822  -0.00006739   0.00000047
  1:  -0.00172130   0.00338178   0.00000881
  2:  -0.00046566  -0.00151035   0.00216166
  3:  -0.00046345  -0.00149546  -0.00217259
  4:   0.01701599   0.00081350   0.00001647
  5:  -0.01490381  -0.00112207  -0.00001482

-----------------------------------
NORM OF THE MP2 GRADIENT:  0.023294
-----------------------------------

-------------------------   --------------------
FINAL SINGLE POINT ENERGY      -132.483172057531
-------------------------   --------------------


                            ***************************************
                            *     ORCA property calculations      *
                            ***************************************

                                    ---------------------
                                    Active property flags
                                    ---------------------
   (+) Dipole Moment


------------------------------------------------------------------------------
                       ORCA ELECTRIC PROPERTIES CALCULATION
------------------------------------------------------------------------------

Dipole Moment Calculation                       ... on
Quadrupole Moment Calculation                   ... off
Polarizability Calculation                      ... off
GBWName                                         ... 4mecn.malloum.etal.dset.1mecn.dset-orca.engrad-mp2.def2tzvp_job24.gbw
Electron density file                           ... 4mecn.malloum.etal.dset.1mecn.dset-orca.engrad-mp2.def2tzvp_job24.scfp
The origin for moment calculation is the CENTER OF MASS  = (-0.000074, -0.000006 -0.000000)

-------------
DIPOLE MOMENT
-------------
                                X             Y             Z
Electronic contribution:      3.00444       0.24009       0.00284
Nuclear contribution   :     -4.66950      -0.37101      -0.00437
                        -----------------------------------------
Total Dipole Moment    :     -1.66506      -0.13093      -0.00153
                        -----------------------------------------
Magnitude (a.u.)       :      1.67020
Magnitude (Debye)      :      4.24532



--------------------
Rotational spectrum 
--------------------
 
Rotational constants in cm-1:     5.273270     0.305813     0.305770 
Rotational constants in MHz : 158088.654810  9168.031468  9166.767833 

 Dipole components along the rotational axes: 
x,y,z [a.u.] :    -1.670203     0.000784     0.000004 
x,y,z [Debye]:    -4.245318     0.001993     0.000009 

 

                         *** MP2 UNRELAXED DENSITY ***

------------------------------------------------------------------------------
                       ORCA ELECTRIC PROPERTIES CALCULATION
------------------------------------------------------------------------------

Dipole Moment Calculation                       ... on
Quadrupole Moment Calculation                   ... off
Polarizability Calculation                      ... off
GBWName                                         ... 4mecn.malloum.etal.dset.1mecn.dset-orca.engrad-mp2.def2tzvp_job24.gbw
Electron density file                           ... 4mecn.malloum.etal.dset.1mecn.dset-orca.engrad-mp2.def2tzvp_job24.pmp2ur
The origin for moment calculation is the CENTER OF MASS  = (-0.000074, -0.000006 -0.000000)

-------------
DIPOLE MOMENT
-------------
                                X             Y             Z
Electronic contribution:      3.03907       0.24277       0.00287
Nuclear contribution   :     -4.66950      -0.37101      -0.00437
                        -----------------------------------------
Total Dipole Moment    :     -1.63043      -0.12824      -0.00150
                        -----------------------------------------
Magnitude (a.u.)       :      1.63547
Magnitude (Debye)      :      4.15702



--------------------
Rotational spectrum 
--------------------
 
Rotational constants in cm-1:     5.273270     0.305813     0.305770 
Rotational constants in MHz : 158088.654810  9168.031468  9166.767833 

 Dipole components along the rotational axes: 
x,y,z [a.u.] :    -1.635466     0.000806     0.000002 
x,y,z [Debye]:    -4.157023     0.002048     0.000006 

 

                           *** MP2 RELAXED DENSITY ***

------------------------------------------------------------------------------
                       ORCA ELECTRIC PROPERTIES CALCULATION
------------------------------------------------------------------------------

Dipole Moment Calculation                       ... on
Quadrupole Moment Calculation                   ... off
Polarizability Calculation                      ... off
GBWName                                         ... 4mecn.malloum.etal.dset.1mecn.dset-orca.engrad-mp2.def2tzvp_job24.gbw
Electron density file                           ... 4mecn.malloum.etal.dset.1mecn.dset-orca.engrad-mp2.def2tzvp_job24.pmp2re
The origin for moment calculation is the CENTER OF MASS  = (-0.000074, -0.000006 -0.000000)

-------------
DIPOLE MOMENT
-------------
                                X             Y             Z
Electronic contribution:      3.13982       0.25059       0.00296
Nuclear contribution   :     -4.66950      -0.37101      -0.00437
                        -----------------------------------------
Total Dipole Moment    :     -1.52968      -0.12042      -0.00141
                        -----------------------------------------
Magnitude (a.u.)       :      1.53441
Magnitude (Debye)      :      3.90017



--------------------
Rotational spectrum 
--------------------
 
Rotational constants in cm-1:     5.273270     0.305813     0.305770 
Rotational constants in MHz : 158088.654810  9168.031468  9166.767833 

 Dipole components along the rotational axes: 
x,y,z [a.u.] :    -1.534412     0.000859     0.000001 
x,y,z [Debye]:    -3.900166     0.002182     0.000003 

 

Timings for individual modules:

Sum of individual times         ...        8.191 sec (=   0.137 min)
GTO integral calculation        ...        0.817 sec (=   0.014 min)  10.0 %
SCF iterations                  ...        3.505 sec (=   0.058 min)  42.8 %
MP2 module                      ...        3.869 sec (=   0.064 min)  47.2 %



                             ****ORCA TERMINATED NORMALLY****
TOTAL RUN TIME: 0 days 0 hours 3 minutes 32 seconds 520 msec
