
                                 *****************
                                 * O   R   C   A *
                                 *****************

           --- An Ab Initio, DFT and Semiempirical electronic structure package ---

                  #######################################################
                  #                        -***-                        #
                  #          Department of theory and spectroscopy      #
                  #               Directorship: Frank Neese             #
                  #        Max Planck Institute fuer Kohlenforschung    #
                  #                Kaiser Wilhelm Platz 1               #
                  #                 D-45470 Muelheim/Ruhr               #
                  #                      Germany                        #
                  #                                                     #
                  #                  All rights reserved                #
                  #                        -***-                        #
                  #######################################################


                         Program Version 4.2.0 -  RELEASE  -


 With contributions from (in alphabetic order):
   Daniel Aravena         : Magnetic Suceptibility
   Michael Atanasov       : Ab Initio Ligand Field Theory (pilot matlab implementation)
   Alexander A. Auer      : GIAO ZORA, VPT2
   Ute Becker             : Parallelization
   Giovanni Bistoni       : ED, misc. LED, open-shell LED, HFLED
   Martin Brehm           : Molecular dynamics
   Dmytro Bykov           : SCF Hessian
   Vijay G. Chilkuri      : MRCI spin determinant printing, contributions to CSF-ICE
   Dipayan Datta          : RHF DLPNO-CCSD density
   Achintya Kumar Dutta   : EOM-CC, STEOM-CC
   Dmitry Ganyushin       : Spin-Orbit,Spin-Spin,Magnetic field MRCI
   Miquel Garcia          : C-PCM Hessian, Gaussian charge scheme
   Yang Guo               : DLPNO-NEVPT2, CIM, IAO-localization
   Andreas Hansen         : Spin unrestricted coupled pair/coupled cluster methods
   Benjamin Helmich-Paris : CASSCF linear response (MC-RPA)
   Lee Huntington         : MR-EOM, pCC
   Robert Izsak           : Overlap fitted RIJCOSX, COSX-SCS-MP3, EOM
   Christian Kollmar      : KDIIS, OOCD, Brueckner-CCSD(T), CCSD density
   Simone Kossmann        : Meta GGA functionals, TD-DFT gradient, OOMP2, MP2 Hessian
   Martin Krupicka        : AUTO-CI
   Lucas Lang             : DCDCAS
   Dagmar Lenk            : GEPOL surface, SMD
   Dimitrios Liakos       : Extrapolation schemes; Compound Job, initial MDCI parallelization
   Dimitrios Manganas     : Further ROCIS development; embedding schemes
   Dimitrios Pantazis     : SARC Basis sets
   Taras Petrenko         : DFT Hessian,TD-DFT gradient, ASA, ECA, R-Raman, ABS, FL, XAS/XES, NRVS
   Peter Pinski           : DLPNO-MP2, DLPNO-MP2 Gradient
   Christoph Reimann      : Effective Core Potentials
   Marius Retegan         : Local ZFS, SOC
   Christoph Riplinger    : Optimizer, TS searches, QM/MM, DLPNO-CCSD(T), (RO)-DLPNO pert. Triples
   Tobias Risthaus        : Range-separated hybrids, TD-DFT gradient, RPA, STAB
   Michael Roemelt        : Original ROCIS implementation
   Masaaki Saitow         : Open-shell DLPNO-CCSD energy and density
   Barbara Sandhoefer     : DKH picture change effects
   Avijit Sen             : IP-ROCIS
   Kantharuban Sivalingam : CASSCF convergence, NEVPT2, FIC-MRCI
   Bernardo de Souza      : ESD, SOC TD-DFT
   Georgi Stoychev        : AutoAux, RI-MP2 NMR
   Willem Van den Heuvel  : Paramagnetic NMR
   Boris Wezisla          : Elementary symmetry handling
   Frank Wennmohs         : Technical directorship


 We gratefully acknowledge several colleagues who have allowed us to
 interface, adapt or use parts of their codes:
   Stefan Grimme, W. Hujo, H. Kruse,             : VdW corrections, initial TS optimization,
                  C. Bannwarth                     DFT functionals, gCP, sTDA/sTD-DF
   Ed Valeev, F. Pavosevic, A. Kumar             : LibInt (2-el integral package), F12 methods
   Garnet Chan, S. Sharma, J. Yang, R. Olivares  : DMRG
   Ulf Ekstrom                                   : XCFun DFT Library
   Mihaly Kallay                                 : mrcc  (arbitrary order and MRCC methods)
   Andreas Klamt, Michael Diedenhofen            : otool_cosmo (COSMO solvation model)
   Jiri Pittner, Ondrej Demel                    : Mk-CCSD
   Frank Weinhold                                : gennbo (NPA and NBO analysis)
   Christopher J. Cramer and Donald G. Truhlar   : smd solvation model
   Lars Goerigk                                  : TD-DFT with DH, B97 family of functionals
   V. Asgeirsson, H. Jonsson                     : NEB implementation
   FAccTs GmbH                                   : IRC, NEB, NEB-TS, Multilevel, MM, QM/MM, CI optimization
   S Lehtola, MJT Oliveira, MAL Marques          : LibXC Library


 Your calculation uses the libint2 library for the computation of 2-el integrals
 For citations please refer to: http://libint.valeyev.net

 Your ORCA version has been built with support for libXC version: 4.2.3
 For citations please refer to: https://tddft.org/programs/libxc/

 This ORCA versions uses:
   CBLAS   interface :  Fast vector & matrix operations
   LAPACKE interface :  Fast linear algebra routines
   SCALAPACK package :  Parallel linear algebra routines


----- Orbital basis set information -----
Your calculation utilizes the basis: def2-TZVP
   F. Weigend and R. Ahlrichs, Phys. Chem. Chem. Phys. 7, 3297 (2005).

================================================================================
                                        WARNINGS
                       Please study these warnings very carefully!
================================================================================


WARNING: The frozen-core approximation for MP2-gradient calculations is turned on by default.

INFO   : the flag for use of LIBINT has been found!

----- Orbital basis set information -----
Your calculation utilizes the basis: def2-TZVP
   F. Weigend and R. Ahlrichs, Phys. Chem. Chem. Phys. 7, 3297 (2005).

================================================================================
                                        WARNINGS
                       Please study these warnings very carefully!
================================================================================


WARNING: The frozen-core approximation for MP2-gradient calculations is turned on by default.

INFO   : the flag for use of LIBINT has been found!

----- Orbital basis set information -----
Your calculation utilizes the basis: def2-TZVP
   F. Weigend and R. Ahlrichs, Phys. Chem. Chem. Phys. 7, 3297 (2005).

================================================================================
                                        WARNINGS
                       Please study these warnings very carefully!
================================================================================


WARNING: The frozen-core approximation for MP2-gradient calculations is turned on by default.

INFO   : the flag for use of LIBINT has been found!

----- Orbital basis set information -----
Your calculation utilizes the basis: def2-TZVP
   F. Weigend and R. Ahlrichs, Phys. Chem. Chem. Phys. 7, 3297 (2005).

================================================================================
                                        WARNINGS
                       Please study these warnings very carefully!
================================================================================


WARNING: The frozen-core approximation for MP2-gradient calculations is turned on by default.

INFO   : the flag for use of LIBINT has been found!

----- Orbital basis set information -----
Your calculation utilizes the basis: def2-TZVP
   F. Weigend and R. Ahlrichs, Phys. Chem. Chem. Phys. 7, 3297 (2005).

================================================================================
                                        WARNINGS
                       Please study these warnings very carefully!
================================================================================


WARNING: The frozen-core approximation for MP2-gradient calculations is turned on by default.

INFO   : the flag for use of LIBINT has been found!

----- Orbital basis set information -----
Your calculation utilizes the basis: def2-TZVP
   F. Weigend and R. Ahlrichs, Phys. Chem. Chem. Phys. 7, 3297 (2005).

================================================================================
                                        WARNINGS
                       Please study these warnings very carefully!
================================================================================


WARNING: The frozen-core approximation for MP2-gradient calculations is turned on by default.

INFO   : the flag for use of LIBINT has been found!

----- Orbital basis set information -----
Your calculation utilizes the basis: def2-TZVP
   F. Weigend and R. Ahlrichs, Phys. Chem. Chem. Phys. 7, 3297 (2005).

================================================================================
                                        WARNINGS
                       Please study these warnings very carefully!
================================================================================


WARNING: The frozen-core approximation for MP2-gradient calculations is turned on by default.

INFO   : the flag for use of LIBINT has been found!

----- Orbital basis set information -----
Your calculation utilizes the basis: def2-TZVP
   F. Weigend and R. Ahlrichs, Phys. Chem. Chem. Phys. 7, 3297 (2005).

================================================================================
                                        WARNINGS
                       Please study these warnings very carefully!
================================================================================


WARNING: The frozen-core approximation for MP2-gradient calculations is turned on by default.

INFO   : the flag for use of LIBINT has been found!

----- Orbital basis set information -----
Your calculation utilizes the basis: def2-TZVP
   F. Weigend and R. Ahlrichs, Phys. Chem. Chem. Phys. 7, 3297 (2005).

================================================================================
                                        WARNINGS
                       Please study these warnings very carefully!
================================================================================


WARNING: The frozen-core approximation for MP2-gradient calculations is turned on by default.

INFO   : the flag for use of LIBINT has been found!

----- Orbital basis set information -----
Your calculation utilizes the basis: def2-TZVP
   F. Weigend and R. Ahlrichs, Phys. Chem. Chem. Phys. 7, 3297 (2005).

================================================================================
                                        WARNINGS
                       Please study these warnings very carefully!
================================================================================


WARNING: The frozen-core approximation for MP2-gradient calculations is turned on by default.

INFO   : the flag for use of LIBINT has been found!

----- Orbital basis set information -----
Your calculation utilizes the basis: def2-TZVP
   F. Weigend and R. Ahlrichs, Phys. Chem. Chem. Phys. 7, 3297 (2005).

================================================================================
                                        WARNINGS
                       Please study these warnings very carefully!
================================================================================


WARNING: The frozen-core approximation for MP2-gradient calculations is turned on by default.

INFO   : the flag for use of LIBINT has been found!

----- Orbital basis set information -----
Your calculation utilizes the basis: def2-TZVP
   F. Weigend and R. Ahlrichs, Phys. Chem. Chem. Phys. 7, 3297 (2005).

================================================================================
                                        WARNINGS
                       Please study these warnings very carefully!
================================================================================


WARNING: The frozen-core approximation for MP2-gradient calculations is turned on by default.

INFO   : the flag for use of LIBINT has been found!

----- Orbital basis set information -----
Your calculation utilizes the basis: def2-TZVP
   F. Weigend and R. Ahlrichs, Phys. Chem. Chem. Phys. 7, 3297 (2005).

================================================================================
                                        WARNINGS
                       Please study these warnings very carefully!
================================================================================


WARNING: The frozen-core approximation for MP2-gradient calculations is turned on by default.

INFO   : the flag for use of LIBINT has been found!

----- Orbital basis set information -----
Your calculation utilizes the basis: def2-TZVP
   F. Weigend and R. Ahlrichs, Phys. Chem. Chem. Phys. 7, 3297 (2005).

================================================================================
                                        WARNINGS
                       Please study these warnings very carefully!
================================================================================


WARNING: The frozen-core approximation for MP2-gradient calculations is turned on by default.

INFO   : the flag for use of LIBINT has been found!

----- Orbital basis set information -----
Your calculation utilizes the basis: def2-TZVP
   F. Weigend and R. Ahlrichs, Phys. Chem. Chem. Phys. 7, 3297 (2005).

================================================================================
                                        WARNINGS
                       Please study these warnings very carefully!
================================================================================


WARNING: The frozen-core approximation for MP2-gradient calculations is turned on by default.

INFO   : the flag for use of LIBINT has been found!

----- Orbital basis set information -----
Your calculation utilizes the basis: def2-TZVP
   F. Weigend and R. Ahlrichs, Phys. Chem. Chem. Phys. 7, 3297 (2005).

================================================================================
                                        WARNINGS
                       Please study these warnings very carefully!
================================================================================


WARNING: The frozen-core approximation for MP2-gradient calculations is turned on by default.

INFO   : the flag for use of LIBINT has been found!

----- Orbital basis set information -----
Your calculation utilizes the basis: def2-TZVP
   F. Weigend and R. Ahlrichs, Phys. Chem. Chem. Phys. 7, 3297 (2005).

================================================================================
                                        WARNINGS
                       Please study these warnings very carefully!
================================================================================


WARNING: The frozen-core approximation for MP2-gradient calculations is turned on by default.

INFO   : the flag for use of LIBINT has been found!

----- Orbital basis set information -----
Your calculation utilizes the basis: def2-TZVP
   F. Weigend and R. Ahlrichs, Phys. Chem. Chem. Phys. 7, 3297 (2005).

================================================================================
                                        WARNINGS
                       Please study these warnings very carefully!
================================================================================


WARNING: The frozen-core approximation for MP2-gradient calculations is turned on by default.

INFO   : the flag for use of LIBINT has been found!

----- Orbital basis set information -----
Your calculation utilizes the basis: def2-TZVP
   F. Weigend and R. Ahlrichs, Phys. Chem. Chem. Phys. 7, 3297 (2005).

================================================================================
                                        WARNINGS
                       Please study these warnings very carefully!
================================================================================


WARNING: The frozen-core approximation for MP2-gradient calculations is turned on by default.

INFO   : the flag for use of LIBINT has been found!

----- Orbital basis set information -----
Your calculation utilizes the basis: def2-TZVP
   F. Weigend and R. Ahlrichs, Phys. Chem. Chem. Phys. 7, 3297 (2005).

================================================================================
                                        WARNINGS
                       Please study these warnings very carefully!
================================================================================


WARNING: The frozen-core approximation for MP2-gradient calculations is turned on by default.

INFO   : the flag for use of LIBINT has been found!

----- Orbital basis set information -----
Your calculation utilizes the basis: def2-TZVP
   F. Weigend and R. Ahlrichs, Phys. Chem. Chem. Phys. 7, 3297 (2005).

================================================================================
                                        WARNINGS
                       Please study these warnings very carefully!
================================================================================


WARNING: The frozen-core approximation for MP2-gradient calculations is turned on by default.

INFO   : the flag for use of LIBINT has been found!

----- Orbital basis set information -----
Your calculation utilizes the basis: def2-TZVP
   F. Weigend and R. Ahlrichs, Phys. Chem. Chem. Phys. 7, 3297 (2005).

================================================================================
                                        WARNINGS
                       Please study these warnings very carefully!
================================================================================


WARNING: The frozen-core approximation for MP2-gradient calculations is turned on by default.

INFO   : the flag for use of LIBINT has been found!

----- Orbital basis set information -----
Your calculation utilizes the basis: def2-TZVP
   F. Weigend and R. Ahlrichs, Phys. Chem. Chem. Phys. 7, 3297 (2005).

================================================================================
                                        WARNINGS
                       Please study these warnings very carefully!
================================================================================


WARNING: The frozen-core approximation for MP2-gradient calculations is turned on by default.

INFO   : the flag for use of LIBINT has been found!

----- Orbital basis set information -----
Your calculation utilizes the basis: def2-TZVP
   F. Weigend and R. Ahlrichs, Phys. Chem. Chem. Phys. 7, 3297 (2005).

================================================================================
                                        WARNINGS
                       Please study these warnings very carefully!
================================================================================


WARNING: The frozen-core approximation for MP2-gradient calculations is turned on by default.

INFO   : the flag for use of LIBINT has been found!

----- Orbital basis set information -----
Your calculation utilizes the basis: def2-TZVP
   F. Weigend and R. Ahlrichs, Phys. Chem. Chem. Phys. 7, 3297 (2005).

================================================================================
                                        WARNINGS
                       Please study these warnings very carefully!
================================================================================


WARNING: The frozen-core approximation for MP2-gradient calculations is turned on by default.

INFO   : the flag for use of LIBINT has been found!

----- Orbital basis set information -----
Your calculation utilizes the basis: def2-TZVP
   F. Weigend and R. Ahlrichs, Phys. Chem. Chem. Phys. 7, 3297 (2005).

================================================================================
                                        WARNINGS
                       Please study these warnings very carefully!
================================================================================


WARNING: The frozen-core approximation for MP2-gradient calculations is turned on by default.

INFO   : the flag for use of LIBINT has been found!

----- Orbital basis set information -----
Your calculation utilizes the basis: def2-TZVP
   F. Weigend and R. Ahlrichs, Phys. Chem. Chem. Phys. 7, 3297 (2005).

================================================================================
                                        WARNINGS
                       Please study these warnings very carefully!
================================================================================


WARNING: The frozen-core approximation for MP2-gradient calculations is turned on by default.

INFO   : the flag for use of LIBINT has been found!

----- Orbital basis set information -----
Your calculation utilizes the basis: def2-TZVP
   F. Weigend and R. Ahlrichs, Phys. Chem. Chem. Phys. 7, 3297 (2005).

================================================================================
                                        WARNINGS
                       Please study these warnings very carefully!
================================================================================


WARNING: The frozen-core approximation for MP2-gradient calculations is turned on by default.

INFO   : the flag for use of LIBINT has been found!

----- Orbital basis set information -----
Your calculation utilizes the basis: def2-TZVP
   F. Weigend and R. Ahlrichs, Phys. Chem. Chem. Phys. 7, 3297 (2005).

================================================================================
                                        WARNINGS
                       Please study these warnings very carefully!
================================================================================


WARNING: The frozen-core approximation for MP2-gradient calculations is turned on by default.

INFO   : the flag for use of LIBINT has been found!

----- Orbital basis set information -----
Your calculation utilizes the basis: def2-TZVP
   F. Weigend and R. Ahlrichs, Phys. Chem. Chem. Phys. 7, 3297 (2005).

================================================================================
                                        WARNINGS
                       Please study these warnings very carefully!
================================================================================


WARNING: The frozen-core approximation for MP2-gradient calculations is turned on by default.

INFO   : the flag for use of LIBINT has been found!

----- Orbital basis set information -----
Your calculation utilizes the basis: def2-TZVP
   F. Weigend and R. Ahlrichs, Phys. Chem. Chem. Phys. 7, 3297 (2005).

================================================================================
                                        WARNINGS
                       Please study these warnings very carefully!
================================================================================


WARNING: The frozen-core approximation for MP2-gradient calculations is turned on by default.

INFO   : the flag for use of LIBINT has been found!

----- Orbital basis set information -----
Your calculation utilizes the basis: def2-TZVP
   F. Weigend and R. Ahlrichs, Phys. Chem. Chem. Phys. 7, 3297 (2005).

================================================================================
                                        WARNINGS
                       Please study these warnings very carefully!
================================================================================


WARNING: The frozen-core approximation for MP2-gradient calculations is turned on by default.

INFO   : the flag for use of LIBINT has been found!

----- Orbital basis set information -----
Your calculation utilizes the basis: def2-TZVP
   F. Weigend and R. Ahlrichs, Phys. Chem. Chem. Phys. 7, 3297 (2005).

================================================================================
                                        WARNINGS
                       Please study these warnings very carefully!
================================================================================


WARNING: The frozen-core approximation for MP2-gradient calculations is turned on by default.

INFO   : the flag for use of LIBINT has been found!

----- Orbital basis set information -----
Your calculation utilizes the basis: def2-TZVP
   F. Weigend and R. Ahlrichs, Phys. Chem. Chem. Phys. 7, 3297 (2005).

================================================================================
                                        WARNINGS
                       Please study these warnings very carefully!
================================================================================


WARNING: The frozen-core approximation for MP2-gradient calculations is turned on by default.

INFO   : the flag for use of LIBINT has been found!

----- Orbital basis set information -----
Your calculation utilizes the basis: def2-TZVP
   F. Weigend and R. Ahlrichs, Phys. Chem. Chem. Phys. 7, 3297 (2005).

================================================================================
                                        WARNINGS
                       Please study these warnings very carefully!
================================================================================


WARNING: The frozen-core approximation for MP2-gradient calculations is turned on by default.

INFO   : the flag for use of LIBINT has been found!

----- Orbital basis set information -----
Your calculation utilizes the basis: def2-TZVP
   F. Weigend and R. Ahlrichs, Phys. Chem. Chem. Phys. 7, 3297 (2005).

================================================================================
                                        WARNINGS
                       Please study these warnings very carefully!
================================================================================


WARNING: The frozen-core approximation for MP2-gradient calculations is turned on by default.

INFO   : the flag for use of LIBINT has been found!

----- Orbital basis set information -----
Your calculation utilizes the basis: def2-TZVP
   F. Weigend and R. Ahlrichs, Phys. Chem. Chem. Phys. 7, 3297 (2005).

================================================================================
                                        WARNINGS
                       Please study these warnings very carefully!
================================================================================


WARNING: The frozen-core approximation for MP2-gradient calculations is turned on by default.

INFO   : the flag for use of LIBINT has been found!

----- Orbital basis set information -----
Your calculation utilizes the basis: def2-TZVP
   F. Weigend and R. Ahlrichs, Phys. Chem. Chem. Phys. 7, 3297 (2005).

================================================================================
                                        WARNINGS
                       Please study these warnings very carefully!
================================================================================


WARNING: The frozen-core approximation for MP2-gradient calculations is turned on by default.

INFO   : the flag for use of LIBINT has been found!

----- Orbital basis set information -----
Your calculation utilizes the basis: def2-TZVP
   F. Weigend and R. Ahlrichs, Phys. Chem. Chem. Phys. 7, 3297 (2005).

================================================================================
                                        WARNINGS
                       Please study these warnings very carefully!
================================================================================


WARNING: The frozen-core approximation for MP2-gradient calculations is turned on by default.

INFO   : the flag for use of LIBINT has been found!

----- Orbital basis set information -----
Your calculation utilizes the basis: def2-TZVP
   F. Weigend and R. Ahlrichs, Phys. Chem. Chem. Phys. 7, 3297 (2005).

================================================================================
                                        WARNINGS
                       Please study these warnings very carefully!
================================================================================


WARNING: The frozen-core approximation for MP2-gradient calculations is turned on by default.

INFO   : the flag for use of LIBINT has been found!

----- Orbital basis set information -----
Your calculation utilizes the basis: def2-TZVP
   F. Weigend and R. Ahlrichs, Phys. Chem. Chem. Phys. 7, 3297 (2005).

================================================================================
                                        WARNINGS
                       Please study these warnings very carefully!
================================================================================


WARNING: The frozen-core approximation for MP2-gradient calculations is turned on by default.

INFO   : the flag for use of LIBINT has been found!

----- Orbital basis set information -----
Your calculation utilizes the basis: def2-TZVP
   F. Weigend and R. Ahlrichs, Phys. Chem. Chem. Phys. 7, 3297 (2005).

================================================================================
                                        WARNINGS
                       Please study these warnings very carefully!
================================================================================


WARNING: The frozen-core approximation for MP2-gradient calculations is turned on by default.

INFO   : the flag for use of LIBINT has been found!

================================================================================
                                       INPUT FILE
================================================================================
NAME = 6meoh.boyd.etal.dset.1meoh.dset-orca.engrad-mp2.def2tzvp.inp
|  1> # 6meoh.boyd.etal.dset.1meoh.dset-orca.engrad-mp2.def2tzvp
|  2> ! MP2 def2-TZVP EnGrad TightSCF FrozenCore
|  3> 
|  4> %pal
|  5>     nprocs 12
|  6> end
|  7> 
|  8> %maxcore 8000
|  9> 
| 10> %scf
| 11>     ConvForced true
| 12> end
| 13> 
| 14> *xyz 0 1
| 15> O  -0.077034887   0.016445541   0.689418868
| 16> H   0.840423350  -0.088584954   1.061007828
| 17> C   0.023494394  -0.011083210  -0.727658076
| 18> H  -0.987854202   0.078901616  -1.134675946
| 19> H   0.465066192  -0.947519994  -1.098024958
| 20> H   0.625297260   0.828206888  -1.101634750
| 21> *
| 22> 
| 23> 
| 24> $new_job
| 25> 
| 26> # 6meoh.boyd.etal.dset.1meoh.dset-orca.engrad-mp2.def2tzvp
| 27> ! MP2 def2-TZVP EnGrad TightSCF FrozenCore
| 28> 
| 29> %pal
| 30>     nprocs 12
| 31> end
| 32> 
| 33> %maxcore 8000
| 34> 
| 35> %scf
| 36>     ConvForced true
| 37> end
| 38> 
| 39> *xyz 0 1
| 40> O   0.458989929  -0.399745280  -0.332276723
| 41> H   1.173723961   0.215588540  -0.650699391
| 42> C  -0.512275988   0.371768210   0.359440862
| 43> H  -1.267204462  -0.316336555   0.750932558
| 44> H  -1.007805394   1.086659519  -0.311652405
| 45> H  -0.080611968   0.929818411   1.203009452
| 46> *
| 47> 
| 48> 
| 49> $new_job
| 50> 
| 51> # 6meoh.boyd.etal.dset.1meoh.dset-orca.engrad-mp2.def2tzvp
| 52> ! MP2 def2-TZVP EnGrad TightSCF FrozenCore
| 53> 
| 54> %pal
| 55>     nprocs 12
| 56> end
| 57> 
| 58> %maxcore 8000
| 59> 
| 60> %scf
| 61>     ConvForced true
| 62> end
| 63> 
| 64> *xyz 0 1
| 65> O  -0.436140348   0.441470045   0.310140403
| 66> H  -1.171386110  -0.121927886   0.672676113
| 67> C   0.490159625  -0.417610815  -0.339509875
| 68> H   1.273362710   0.207842829  -0.777755572
| 69> H   0.023351043  -1.004675768  -1.143650197
| 70> H   0.957385372  -1.113063336   0.371042895
| 71> *
| 72> 
| 73> 
| 74> $new_job
| 75> 
| 76> # 6meoh.boyd.etal.dset.1meoh.dset-orca.engrad-mp2.def2tzvp
| 77> ! MP2 def2-TZVP EnGrad TightSCF FrozenCore
| 78> 
| 79> %pal
| 80>     nprocs 12
| 81> end
| 82> 
| 83> %maxcore 8000
| 84> 
| 85> %scf
| 86>     ConvForced true
| 87> end
| 88> 
| 89> *xyz 0 1
| 90> O  -0.228014404  -0.523925784  -0.393395577
| 91> H   0.010395396  -1.352677482   0.103106491
| 92> C   0.218493260   0.585904684   0.372751723
| 93> H  -0.102253993   1.496227992  -0.142097327
| 94> H   1.313959069   0.600066396   0.455318907
| 95> H  -0.206073478   0.591737358   1.386883294
| 96> *
| 97> 
| 98> 
| 99> $new_job
|100> 
|101> # 6meoh.boyd.etal.dset.1meoh.dset-orca.engrad-mp2.def2tzvp
|102> ! MP2 def2-TZVP EnGrad TightSCF FrozenCore
|103> 
|104> %pal
|105>     nprocs 12
|106> end
|107> 
|108> %maxcore 8000
|109> 
|110> %scf
|111>     ConvForced true
|112> end
|113> 
|114> *xyz 0 1
|115> O   0.114653504  -0.018125956  -0.683762290
|116> H  -0.784044641   0.029145531  -1.107923800
|117> C  -0.063118454   0.016193034   0.724954995
|118> H   0.928716308   0.006403355   1.186364594
|119> H  -0.620397668  -0.861544583   1.079381820
|120> H  -0.592218778   0.920778460   1.057919841
|121> *
|122> 
|123> 
|124> $new_job
|125> 
|126> # 6meoh.boyd.etal.dset.1meoh.dset-orca.engrad-mp2.def2tzvp
|127> ! MP2 def2-TZVP EnGrad TightSCF FrozenCore
|128> 
|129> %pal
|130>     nprocs 12
|131> end
|132> 
|133> %maxcore 8000
|134> 
|135> %scf
|136>     ConvForced true
|137> end
|138> 
|139> *xyz 0 1
|140> O   0.163906315   0.508384463   0.442432316
|141> H  -0.078271763   1.354832040  -0.021231357
|142> C  -0.152547843  -0.570980860  -0.424871593
|143> H   0.139965562  -1.498024106   0.076886739
|144> H   0.384315766  -0.509750158  -1.382658078
|145> H  -1.230165271  -0.613535133  -0.633576377
|146> *
|147> 
|148> 
|149> $new_job
|150> 
|151> # 6meoh.boyd.etal.dset.1meoh.dset-orca.engrad-mp2.def2tzvp
|152> ! MP2 def2-TZVP EnGrad TightSCF FrozenCore
|153> 
|154> %pal
|155>     nprocs 12
|156> end
|157> 
|158> %maxcore 8000
|159> 
|160> %scf
|161>     ConvForced true
|162> end
|163> 
|164> *xyz 0 1
|165> O  -0.103409230   0.183833098   0.665090031
|166> H   0.810473136   0.252920323   1.058087107
|167> C   0.050700032  -0.194306473  -0.705259681
|168> H  -0.922166531  -0.079251314  -1.192293801
|169> H   0.377056271  -1.237287691  -0.811692527
|170> H   0.772063964   0.460737045  -1.208121952
|171> *
|172> 
|173> 
|174> $new_job
|175> 
|176> # 6meoh.boyd.etal.dset.1meoh.dset-orca.engrad-mp2.def2tzvp
|177> ! MP2 def2-TZVP EnGrad TightSCF FrozenCore
|178> 
|179> %pal
|180>     nprocs 12
|181> end
|182> 
|183> %maxcore 8000
|184> 
|185> %scf
|186>     ConvForced true
|187> end
|188> 
|189> *xyz 0 1
|190> O   0.670541799  -0.167949121  -0.068521362
|191> H   1.124265718   0.626399975  -0.492544348
|192> C  -0.714514615   0.123900866   0.096292049
|193> H  -1.195647855  -0.761719192   0.520172120
|194> H  -1.190290891   0.354361983  -0.865328514
|195> H  -0.868609199   0.970653209   0.778015007
|196> *
|197> 
|198> 
|199> $new_job
|200> 
|201> # 6meoh.boyd.etal.dset.1meoh.dset-orca.engrad-mp2.def2tzvp
|202> ! MP2 def2-TZVP EnGrad TightSCF FrozenCore
|203> 
|204> %pal
|205>     nprocs 12
|206> end
|207> 
|208> %maxcore 8000
|209> 
|210> %scf
|211>     ConvForced true
|212> end
|213> 
|214> *xyz 0 1
|215> O  -0.115180223   0.470757430   0.502028281
|216> H  -0.951594649   0.177485301   0.940961595
|217> C   0.168085013  -0.465194362  -0.542008374
|218> H   0.988495664  -0.052310953  -1.135861123
|219> H  -0.702486688  -0.625787622  -1.190230143
|220> H   0.491091772  -1.429121637  -0.125687280
|221> *
|222> 
|223> 
|224> $new_job
|225> 
|226> # 6meoh.boyd.etal.dset.1meoh.dset-orca.engrad-mp2.def2tzvp
|227> ! MP2 def2-TZVP EnGrad TightSCF FrozenCore
|228> 
|229> %pal
|230>     nprocs 12
|231> end
|232> 
|233> %maxcore 8000
|234> 
|235> %scf
|236>     ConvForced true
|237> end
|238> 
|239> *xyz 0 1
|240> O  -0.252870346  -0.472631436  -0.438795508
|241> H  -0.096821554  -1.362538564  -0.015998890
|242> C   0.248550410   0.537035166   0.423613498
|243> H   0.079336701   1.503680700  -0.059737931
|244> H   1.327265217   0.417388283   0.592706978
|245> H  -0.257342231   0.544885796   1.400867812
|246> *
|247> 
|248> 
|249> $new_job
|250> 
|251> # 6meoh.boyd.etal.dset.1meoh.dset-orca.engrad-mp2.def2tzvp
|252> ! MP2 def2-TZVP EnGrad TightSCF FrozenCore
|253> 
|254> %pal
|255>     nprocs 12
|256> end
|257> 
|258> %maxcore 8000
|259> 
|260> %scf
|261>     ConvForced true
|262> end
|263> 
|264> *xyz 0 1
|265> O   0.198275471  -0.124187211  -0.652605653
|266> H  -0.455823049   0.326834287  -1.238360588
|267> C  -0.163543377   0.100558959   0.702803650
|268> H   0.595445636  -0.375793058   1.329085554
|269> H  -1.138283998  -0.348591780   0.939772354
|270> H  -0.200065242   1.170691162   0.954606173
|271> *
|272> 
|273> 
|274> $new_job
|275> 
|276> # 6meoh.boyd.etal.dset.1meoh.dset-orca.engrad-mp2.def2tzvp
|277> ! MP2 def2-TZVP EnGrad TightSCF FrozenCore
|278> 
|279> %pal
|280>     nprocs 12
|281> end
|282> 
|283> %maxcore 8000
|284> 
|285> %scf
|286>     ConvForced true
|287> end
|288> 
|289> *xyz 0 1
|290> O   0.108519925   0.620554175  -0.289776571
|291> H  -0.407114501   1.247647788   0.255902063
|292> C  -0.080247595  -0.671371298   0.263819194
|293> H   0.580586472  -1.359267827  -0.272829444
|294> H  -1.114759022  -1.032265732   0.140157386
|295> H   0.174824109  -0.706967653   1.333133163
|296> *
|297> 
|298> 
|299> $new_job
|300> 
|301> # 6meoh.boyd.etal.dset.1meoh.dset-orca.engrad-mp2.def2tzvp
|302> ! MP2 def2-TZVP EnGrad TightSCF FrozenCore
|303> 
|304> %pal
|305>     nprocs 12
|306> end
|307> 
|308> %maxcore 8000
|309> 
|310> %scf
|311>     ConvForced true
|312> end
|313> 
|314> *xyz 0 1
|315> O   0.029066591  -0.165432122   0.676373722
|316> H   0.979143291  -0.098472078   0.926915949
|317> C  -0.086681704   0.165084013  -0.709047519
|318> H  -1.083485617  -0.142148134  -1.036960236
|319> H   0.668365420  -0.349694760  -1.314903644
|320> H   0.007471714   1.249308987  -0.863060468
|321> *
|322> 
|323> 
|324> $new_job
|325> 
|326> # 6meoh.boyd.etal.dset.1meoh.dset-orca.engrad-mp2.def2tzvp
|327> ! MP2 def2-TZVP EnGrad TightSCF FrozenCore
|328> 
|329> %pal
|330>     nprocs 12
|331> end
|332> 
|333> %maxcore 8000
|334> 
|335> %scf
|336>     ConvForced true
|337> end
|338> 
|339> *xyz 0 1
|340> O   0.577603928   0.014039777  -0.384644498
|341> H   0.622519628   0.922678434  -0.781730272
|342> C  -0.593632923  -0.068794128   0.418101860
|343> H  -0.605226521  -1.057290924   0.885424751
|344> H  -1.502816815   0.037541350  -0.189207230
|345> H  -0.609857130   0.693958690   1.209404210
|346> *
|347> 
|348> 
|349> $new_job
|350> 
|351> # 6meoh.boyd.etal.dset.1meoh.dset-orca.engrad-mp2.def2tzvp
|352> ! MP2 def2-TZVP EnGrad TightSCF FrozenCore
|353> 
|354> %pal
|355>     nprocs 12
|356> end
|357> 
|358> %maxcore 8000
|359> 
|360> %scf
|361>     ConvForced true
|362> end
|363> 
|364> *xyz 0 1
|365> O  -0.406102507  -0.404565512  -0.393727020
|366> H  -0.549711943  -1.259013869   0.125254170
|367> C   0.425175050   0.466688338   0.371883673
|368> H   0.515218322   1.409587788  -0.173994754
|369> H   1.427819163   0.042067754   0.510544968
|370> H  -0.013082741   0.668522300   1.357012332
|371> *
|372> 
|373> 
|374> $new_job
|375> 
|376> # 6meoh.boyd.etal.dset.1meoh.dset-orca.engrad-mp2.def2tzvp
|377> ! MP2 def2-TZVP EnGrad TightSCF FrozenCore
|378> 
|379> %pal
|380>     nprocs 12
|381> end
|382> 
|383> %maxcore 8000
|384> 
|385> %scf
|386>     ConvForced true
|387> end
|388> 
|389> *xyz 0 1
|390> O   0.675688704   0.093033296   0.123351009
|391> H   0.813483686   1.063238110   0.073845055
|392> C  -0.698377743  -0.152010064  -0.122355013
|393> H  -0.845807240  -1.237129403  -0.105781562
|394> H  -1.018721389   0.215699067  -1.110886334
|395> H  -1.353232030   0.292707199   0.642682212
|396> *
|397> 
|398> 
|399> $new_job
|400> 
|401> # 6meoh.boyd.etal.dset.1meoh.dset-orca.engrad-mp2.def2tzvp
|402> ! MP2 def2-TZVP EnGrad TightSCF FrozenCore
|403> 
|404> %pal
|405>     nprocs 12
|406> end
|407> 
|408> %maxcore 8000
|409> 
|410> %scf
|411>     ConvForced true
|412> end
|413> 
|414> *xyz 0 1
|415> O  -0.330618469   0.585673829   0.190478461
|416> H  -1.271551908   0.477327753  -0.108191366
|417> C   0.396177986  -0.594289905  -0.179558520
|418> H   1.435981794  -0.441369384   0.124322248
|419> H   0.355871541  -0.783606951  -1.259496440
|420> H   0.007198642  -1.468009774   0.359252396
|421> *
|422> 
|423> 
|424> $new_job
|425> 
|426> # 6meoh.boyd.etal.dset.1meoh.dset-orca.engrad-mp2.def2tzvp
|427> ! MP2 def2-TZVP EnGrad TightSCF FrozenCore
|428> 
|429> %pal
|430>     nprocs 12
|431> end
|432> 
|433> %maxcore 8000
|434> 
|435> %scf
|436>     ConvForced true
|437> end
|438> 
|439> *xyz 0 1
|440> O  -0.593821044  -0.191926044   0.302293148
|441> H  -0.572453066   0.163899337   1.219740329
|442> C   0.606564004   0.175131762  -0.363922584
|443> H   0.572194417  -0.264492629  -1.364041479
|444> H   1.501420167  -0.205685160   0.149324437
|445> H   0.697570061   1.266121419  -0.467232039
|446> *
|447> 
|448> 
|449> $new_job
|450> 
|451> # 6meoh.boyd.etal.dset.1meoh.dset-orca.engrad-mp2.def2tzvp
|452> ! MP2 def2-TZVP EnGrad TightSCF FrozenCore
|453> 
|454> %pal
|455>     nprocs 12
|456> end
|457> 
|458> %maxcore 8000
|459> 
|460> %scf
|461>     ConvForced true
|462> end
|463> 
|464> *xyz 0 1
|465> O  -0.145729560  -0.168488880   0.664727641
|466> H   0.706694597  -0.518708776   1.042194628
|467> C   0.097875316   0.194464977  -0.707193693
|468> H  -0.869058061   0.228511158  -1.215583655
|469> H   0.748215576  -0.539779119  -1.193121843
|470> H   0.561242867   1.187386696  -0.758711486
|471> *
|472> 
|473> 
|474> $new_job
|475> 
|476> # 6meoh.boyd.etal.dset.1meoh.dset-orca.engrad-mp2.def2tzvp
|477> ! MP2 def2-TZVP EnGrad TightSCF FrozenCore
|478> 
|479> %pal
|480>     nprocs 12
|481> end
|482> 
|483> %maxcore 8000
|484> 
|485> %scf
|486>     ConvForced true
|487> end
|488> 
|489> *xyz 0 1
|490> O   0.518340635  -0.138698763  -0.440817907
|491> H   0.852141029   0.737517387  -0.752491591
|492> C  -0.550209289   0.089508779   0.470403465
|493> H  -0.880164255  -0.884761954   0.840762731
|494> H  -1.400140796   0.578198278  -0.024961514
|495> H  -0.243881049   0.704227497   1.329075543
|496> *
|497> 
|498> 
|499> $new_job
|500> 
|501> # 6meoh.boyd.etal.dset.1meoh.dset-orca.engrad-mp2.def2tzvp
|502> ! MP2 def2-TZVP EnGrad TightSCF FrozenCore
|503> 
|504> %pal
|505>     nprocs 12
|506> end
|507> 
|508> %maxcore 8000
|509> 
|510> %scf
|511>     ConvForced true
|512> end
|513> 
|514> *xyz 0 1
|515> O  -0.268117440  -0.313285965  -0.562718246
|516> H  -0.605564780  -1.216012584  -0.283425111
|517> C   0.297833023   0.377870486   0.559894860
|518> H   0.102227902   1.445317928   0.431639524
|519> H   1.378482245   0.199164314   0.619205280
|520> H  -0.167926469   0.042039713   1.493686027
|521> *
|522> 
|523> 
|524> $new_job
|525> 
|526> # 6meoh.boyd.etal.dset.1meoh.dset-orca.engrad-mp2.def2tzvp
|527> ! MP2 def2-TZVP EnGrad TightSCF FrozenCore
|528> 
|529> %pal
|530>     nprocs 12
|531> end
|532> 
|533> %maxcore 8000
|534> 
|535> %scf
|536>     ConvForced true
|537> end
|538> 
|539> *xyz 0 1
|540> O   0.445578628  -0.305483707  -0.431831049
|541> H  -0.041961721  -1.045775140  -0.846084798
|542> C  -0.425939888   0.355292589   0.465220352
|543> H   0.135289725   1.175818587   0.923065838
|544> H  -0.786141789  -0.301520573   1.274032362
|545> H  -1.304981647   0.787171193  -0.039527882
|546> *
|547> 
|548> 
|549> $new_job
|550> 
|551> # 6meoh.boyd.etal.dset.1meoh.dset-orca.engrad-mp2.def2tzvp
|552> ! MP2 def2-TZVP EnGrad TightSCF FrozenCore
|553> 
|554> %pal
|555>     nprocs 12
|556> end
|557> 
|558> %maxcore 8000
|559> 
|560> %scf
|561>     ConvForced true
|562> end
|563> 
|564> *xyz 0 1
|565> O  -0.211162378   0.478479687   0.462488892
|566> H  -1.109244654   0.769255501   0.154895155
|567> C   0.271344939  -0.507430164  -0.457274048
|568> H   1.162096046  -0.959660611  -0.011655260
|569> H   0.542936394  -0.064436158  -1.423957629
|570> H  -0.477069504  -1.294191880  -0.612137527
|571> *
|572> 
|573> 
|574> $new_job
|575> 
|576> # 6meoh.boyd.etal.dset.1meoh.dset-orca.engrad-mp2.def2tzvp
|577> ! MP2 def2-TZVP EnGrad TightSCF FrozenCore
|578> 
|579> %pal
|580>     nprocs 12
|581> end
|582> 
|583> %maxcore 8000
|584> 
|585> %scf
|586>     ConvForced true
|587> end
|588> 
|589> *xyz 0 1
|590> O  -0.643531762  -0.064735311   0.246332622
|591> H  -0.627698885   0.299677998   1.154398406
|592> C   0.656273712   0.044656763  -0.305207643
|593> H   0.617593401  -0.368030514  -1.317824835
|594> H   1.406414259  -0.525064724   0.265737212
|595> H   0.999209558   1.088924786  -0.375827717
|596> *
|597> 
|598> 
|599> $new_job
|600> 
|601> # 6meoh.boyd.etal.dset.1meoh.dset-orca.engrad-mp2.def2tzvp
|602> ! MP2 def2-TZVP EnGrad TightSCF FrozenCore
|603> 
|604> %pal
|605>     nprocs 12
|606> end
|607> 
|608> %maxcore 8000
|609> 
|610> %scf
|611>     ConvForced true
|612> end
|613> 
|614> *xyz 0 1
|615> O  -0.149089887  -0.054442182   0.680955477
|616> H   0.725057265   0.059650247   1.149711721
|617> C   0.100141965   0.048560370  -0.728490258
|618> H  -0.869677260   0.051634014  -1.232889038
|619> H   0.689097192  -0.805780391  -1.080311083
|620> H   0.628951755   0.980088561  -0.965570277
|621> *
|622> 
|623> 
|624> $new_job
|625> 
|626> # 6meoh.boyd.etal.dset.1meoh.dset-orca.engrad-mp2.def2tzvp
|627> ! MP2 def2-TZVP EnGrad TightSCF FrozenCore
|628> 
|629> %pal
|630>     nprocs 12
|631> end
|632> 
|633> %maxcore 8000
|634> 
|635> %scf
|636>     ConvForced true
|637> end
|638> 
|639> *xyz 0 1
|640> O  -0.107973940   0.197736679  -0.660012709
|641> H   0.046180160   1.172318820  -0.677754729
|642> C   0.103149178  -0.260945578   0.678147218
|643> H  -0.194640494  -1.313124999   0.709013953
|644> H  -0.523495816   0.293362025   1.389514051
|645> H   1.156852508  -0.182067512   0.975724487
|646> *
|647> 
|648> 
|649> $new_job
|650> 
|651> # 6meoh.boyd.etal.dset.1meoh.dset-orca.engrad-mp2.def2tzvp
|652> ! MP2 def2-TZVP EnGrad TightSCF FrozenCore
|653> 
|654> %pal
|655>     nprocs 12
|656> end
|657> 
|658> %maxcore 8000
|659> 
|660> %scf
|661>     ConvForced true
|662> end
|663> 
|664> *xyz 0 1
|665> O   0.163597378  -0.600921633   0.306324350
|666> H  -0.071148143  -1.309383331  -0.330721458
|667> C  -0.153067355   0.657116345  -0.275943026
|668> H   0.144057921   1.429199188   0.438739373
|669> H  -1.231282912   0.757393207  -0.463347277
|670> H   0.385312274   0.831850685  -1.219253008
|671> *
|672> 
|673> 
|674> $new_job
|675> 
|676> # 6meoh.boyd.etal.dset.1meoh.dset-orca.engrad-mp2.def2tzvp
|677> ! MP2 def2-TZVP EnGrad TightSCF FrozenCore
|678> 
|679> %pal
|680>     nprocs 12
|681> end
|682> 
|683> %maxcore 8000
|684> 
|685> %scf
|686>     ConvForced true
|687> end
|688> 
|689> *xyz 0 1
|690> O  -0.253950794   0.318166360  -0.565912443
|691> H  -0.864526542   1.021039525  -0.251444853
|692> C   0.298612341  -0.369105701   0.561533496
|693> H   0.717913264  -1.308792409   0.196138035
|694> H  -0.468881366  -0.595634123   1.314335284
|695> H   1.088537584   0.230960706   1.033257487
|696> *
|697> 
|698> 
|699> $new_job
|700> 
|701> # 6meoh.boyd.etal.dset.1meoh.dset-orca.engrad-mp2.def2tzvp
|702> ! MP2 def2-TZVP EnGrad TightSCF FrozenCore
|703> 
|704> %pal
|705>     nprocs 12
|706> end
|707> 
|708> %maxcore 8000
|709> 
|710> %scf
|711>     ConvForced true
|712> end
|713> 
|714> *xyz 0 1
|715> O   0.034157669   0.563456204   0.401935763
|716> H  -0.846444429   0.643721988   0.853382880
|717> C   0.018101183  -0.581339030  -0.437638457
|718> H   0.987629258  -0.637335158  -0.941214449
|719> H  -0.765670946  -0.510369066  -1.204961562
|720> H  -0.133449222  -1.513305716   0.127211773
|721> *
|722> 
|723> 
|724> $new_job
|725> 
|726> # 6meoh.boyd.etal.dset.1meoh.dset-orca.engrad-mp2.def2tzvp
|727> ! MP2 def2-TZVP EnGrad TightSCF FrozenCore
|728> 
|729> %pal
|730>     nprocs 12
|731> end
|732> 
|733> %maxcore 8000
|734> 
|735> %scf
|736>     ConvForced true
|737> end
|738> 
|739> *xyz 0 1
|740> O  -0.416168283   0.549750186  -0.049726879
|741> H  -0.804987813   0.508796778  -0.952446405
|742> C   0.447716208  -0.558342612   0.104165109
|743> H   0.840364123  -0.534474239   1.125776306
|744> H   1.304535901  -0.526267517  -0.588157997
|745> H  -0.068483943  -1.521795188  -0.037028819
|746> *
|747> 
|748> 
|749> $new_job
|750> 
|751> # 6meoh.boyd.etal.dset.1meoh.dset-orca.engrad-mp2.def2tzvp
|752> ! MP2 def2-TZVP EnGrad TightSCF FrozenCore
|753> 
|754> %pal
|755>     nprocs 12
|756> end
|757> 
|758> %maxcore 8000
|759> 
|760> %scf
|761>     ConvForced true
|762> end
|763> 
|764> *xyz 0 1
|765> O   0.123755809   0.021995557   0.681464861
|766> H   1.108202879  -0.014556439   0.779130663
|767> C  -0.185417663  -0.020817801  -0.702468904
|768> H  -1.275012715  -0.006555620  -0.799004677
|769> H   0.192029749  -0.931487835  -1.191415795
|770> H   0.219679130   0.851498405  -1.235930181
|771> *
|772> 
|773> 
|774> $new_job
|775> 
|776> # 6meoh.boyd.etal.dset.1meoh.dset-orca.engrad-mp2.def2tzvp
|777> ! MP2 def2-TZVP EnGrad TightSCF FrozenCore
|778> 
|779> %pal
|780>     nprocs 12
|781> end
|782> 
|783> %maxcore 8000
|784> 
|785> %scf
|786>     ConvForced true
|787> end
|788> 
|789> *xyz 0 1
|790> O  -0.228925137  -0.473728922  -0.454856235
|791> H  -0.135777359  -1.348678926   0.006983870
|792> C   0.228384866   0.537935398   0.438291078
|793> H   0.212241651   1.488228667  -0.103255203
|794> H   1.254972701   0.338621510   0.771820495
|795> H  -0.418822632   0.631939757   1.322345359
|796> *
|797> 
|798> 
|799> $new_job
|800> 
|801> # 6meoh.boyd.etal.dset.1meoh.dset-orca.engrad-mp2.def2tzvp
|802> ! MP2 def2-TZVP EnGrad TightSCF FrozenCore
|803> 
|804> %pal
|805>     nprocs 12
|806> end
|807> 
|808> %maxcore 8000
|809> 
|810> %scf
|811>     ConvForced true
|812> end
|813> 
|814> *xyz 0 1
|815> O   0.441253117   0.531724028   0.094011474
|816> H   1.320162361   0.255209527  -0.265597582
|817> C  -0.506564484  -0.528571361  -0.073745277
|818> H  -1.500383011  -0.122066822   0.131342027
|819> H  -0.296629322  -1.353828955   0.620267188
|820> H  -0.491542855  -0.921655847  -1.099641886
|821> *
|822> 
|823> 
|824> $new_job
|825> 
|826> # 6meoh.boyd.etal.dset.1meoh.dset-orca.engrad-mp2.def2tzvp
|827> ! MP2 def2-TZVP EnGrad TightSCF FrozenCore
|828> 
|829> %pal
|830>     nprocs 12
|831> end
|832> 
|833> %maxcore 8000
|834> 
|835> %scf
|836>     ConvForced true
|837> end
|838> 
|839> *xyz 0 1
|840> O   0.014805126  -0.347620011   0.604296349
|841> H   0.340801795   0.295284406   1.272453743
|842> C  -0.035644599   0.318897998  -0.659249134
|843> H  -0.324824897  -0.427241101  -1.404328289
|844> H   0.948351746   0.719510275  -0.938279981
|845> H  -0.774606349   1.130720739  -0.667062699
|846> *
|847> 
|848> 
|849> $new_job
|850> 
|851> # 6meoh.boyd.etal.dset.1meoh.dset-orca.engrad-mp2.def2tzvp
|852> ! MP2 def2-TZVP EnGrad TightSCF FrozenCore
|853> 
|854> %pal
|855>     nprocs 12
|856> end
|857> 
|858> %maxcore 8000
|859> 
|860> %scf
|861>     ConvForced true
|862> end
|863> 
|864> *xyz 0 1
|865> O   0.297831765  -0.305170208  -0.543788264
|866> H   0.578516405   0.434977465  -1.130221506
|867> C  -0.320048367   0.267118530   0.589186782
|868> H  -0.625379015  -0.550265696   1.251498604
|869> H  -1.221189302   0.847536331   0.331912371
|870> H   0.353852763   0.929167019   1.158363127
|871> *
|872> 
|873> 
|874> $new_job
|875> 
|876> # 6meoh.boyd.etal.dset.1meoh.dset-orca.engrad-mp2.def2tzvp
|877> ! MP2 def2-TZVP EnGrad TightSCF FrozenCore
|878> 
|879> %pal
|880>     nprocs 12
|881> end
|882> 
|883> %maxcore 8000
|884> 
|885> %scf
|886>     ConvForced true
|887> end
|888> 
|889> *xyz 0 1
|890> O   0.326814884   0.209328452  -0.581611640
|891> H   1.204203460   0.516287480  -0.307836595
|892> C  -0.388592329  -0.233735766   0.582164982
|893> H  -1.343284487  -0.620845001   0.221798348
|894> H  -0.569521608   0.598802339   1.273436066
|895> H   0.151090821  -1.032007894   1.108257742
|896> *
|897> 
|898> 
|899> $new_job
|900> 
|901> # 6meoh.boyd.etal.dset.1meoh.dset-orca.engrad-mp2.def2tzvp
|902> ! MP2 def2-TZVP EnGrad TightSCF FrozenCore
|903> 
|904> %pal
|905>     nprocs 12
|906> end
|907> 
|908> %maxcore 8000
|909> 
|910> %scf
|911>     ConvForced true
|912> end
|913> 
|914> *xyz 0 1
|915> O  -0.150345216  -0.030564946   0.684515766
|916> H   0.711415462  -0.159891911   1.141263025
|917> C   0.103573138   0.039356366  -0.733221068
|918> H  -0.799323022   0.441936483  -1.198666906
|919> H   0.288150383  -0.964464406  -1.131618269
|920> H   0.952227469   0.698647879  -0.940181429
|921> *
|922> 
|923> 
|924> $new_job
|925> 
|926> # 6meoh.boyd.etal.dset.1meoh.dset-orca.engrad-mp2.def2tzvp
|927> ! MP2 def2-TZVP EnGrad TightSCF FrozenCore
|928> 
|929> %pal
|930>     nprocs 12
|931> end
|932> 
|933> %maxcore 8000
|934> 
|935> %scf
|936>     ConvForced true
|937> end
|938> 
|939> *xyz 0 1
|940> O   0.687926105   0.049591654   0.047061642
|941> H   0.872754531   0.990731171   0.231280334
|942> C  -0.712414158  -0.105866756  -0.058766396
|943> H  -0.908929991  -1.158335051  -0.287147921
|944> H  -1.152594352   0.501580982  -0.867212795
|945> H  -1.242510262   0.140303567   0.876267678
|946> *
|947> 
|948> 
|949> $new_job
|950> 
|951> # 6meoh.boyd.etal.dset.1meoh.dset-orca.engrad-mp2.def2tzvp
|952> ! MP2 def2-TZVP EnGrad TightSCF FrozenCore
|953> 
|954> %pal
|955>     nprocs 12
|956> end
|957> 
|958> %maxcore 8000
|959> 
|960> %scf
|961>     ConvForced true
|962> end
|963> 
|964> *xyz 0 1
|965> O  -0.101655776  -0.615397127   0.316621532
|966> H  -0.398116013  -1.253189935  -0.374452160
|967> C   0.124065607   0.672220080  -0.285274940
|968> H   0.354876058   1.354529085   0.535053362
|969> H  -0.780689200   1.025680838  -0.794525888
|970> H   0.959283466   0.631853255  -0.992920317
|971> *
|972> 
|973> 
|974> $new_job
|975> 
|976> # 6meoh.boyd.etal.dset.1meoh.dset-orca.engrad-mp2.def2tzvp
|977> ! MP2 def2-TZVP EnGrad TightSCF FrozenCore
|978> 
|979> %pal
|980>     nprocs 12
|981> end
|982> 
|983> %maxcore 8000
|984> 
|985> %scf
|986>     ConvForced true
|987> end
|988> 
|989> *xyz 0 1
|990> O  -0.274365971   0.297090756  -0.566447249
|991> H  -0.928369822   0.975377212  -0.264663399
|992> C   0.321189535  -0.345733707   0.563307964
|993> H   0.995042519  -1.115412198   0.180392493
|994> H  -0.436967812  -0.821673874   1.196891747
|995> H   0.898386435   0.365343970   1.167010061
|996> *
|997> 
|998> 
|999> $new_job
|1000> 
|1001> # 6meoh.boyd.etal.dset.1meoh.dset-orca.engrad-mp2.def2tzvp
|1002> ! MP2 def2-TZVP EnGrad TightSCF FrozenCore
|1003> 
|1004> %pal
|1005>     nprocs 12
|1006> end
|1007> 
|1008> %maxcore 8000
|1009> 
|1010> %scf
|1011>     ConvForced true
|1012> end
|1013> 
|1014> *xyz 0 1
|1015> O   0.675612343  -0.122123582  -0.082323358
|1016> H   0.752183842  -0.616275315  -0.919902341
|1017> C  -0.693534174   0.153514361   0.133222118
|1018> H  -0.769096929   0.736256053   1.056810535
|1019> H  -1.299060592  -0.759151327   0.260644639
|1020> H  -1.144807909   0.748526019  -0.678203010
|1021> *
|1022> 
|1023> 
|1024> $new_job
|1025> 
|1026> # 6meoh.boyd.etal.dset.1meoh.dset-orca.engrad-mp2.def2tzvp
|1027> ! MP2 def2-TZVP EnGrad TightSCF FrozenCore
|1028> 
|1029> %pal
|1030>     nprocs 12
|1031> end
|1032> 
|1033> %maxcore 8000
|1034> 
|1035> %scf
|1036>     ConvForced true
|1037> end
|1038> 
|1039> *xyz 0 1
|1040> O  -0.660897625  -0.137841094   0.153551213
|1041> H  -0.648671606  -0.705850838   0.949658555
|1042> C   0.674588402   0.174374019  -0.203912700
|1043> H   0.633976867   0.813254450  -1.090869678
|1044> H   1.262950700  -0.721610025  -0.455410149
|1045> H   1.204696947   0.724503267   0.588921146
|1046> *
|1047> 
|1048>                          ****END OF INPUT****
================================================================================


                 $$$$$$$$$$$$$$$$$$$$$$$$$$$$$$$$$$$$$$$$$$$$$$ 
                 $ THERE ARE 42 JOBS TO BE PROCESSED THIS RUN $
                 $$$$$$$$$$$$$$$$$$$$$$$$$$$$$$$$$$$$$$$$$$$$$$ 




                 $$$$$$$$$$$$$$$$  JOB NUMBER  1 $$$$$$$$$$$$$$


                     *******************************
                     * Energy+Gradient Calculation *
                     *******************************

---------------------------------
CARTESIAN COORDINATES (ANGSTROEM)
---------------------------------
  O     -0.077035    0.016446    0.689419
  H      0.840423   -0.088585    1.061008
  C      0.023494   -0.011083   -0.727658
  H     -0.987854    0.078902   -1.134676
  H      0.465066   -0.947520   -1.098025
  H      0.625297    0.828207   -1.101635

----------------------------
CARTESIAN COORDINATES (A.U.)
----------------------------
  NO LB      ZA    FRAG     MASS         X           Y           Z
   0 O     8.0000    0    15.999   -0.145575    0.031078    1.302813
   1 H     1.0000    0     1.008    1.588170   -0.167401    2.005014
   2 C     6.0000    0    12.011    0.044398   -0.020944   -1.375074
   3 H     1.0000    0     1.008   -1.866774    0.149102   -2.144227
   4 H     1.0000    0     1.008    0.878848   -1.790553   -2.074966
   5 H     1.0000    0     1.008    1.181641    1.565084   -2.081788

--------------------------------
INTERNAL COORDINATES (ANGSTROEM)
--------------------------------
 O      0   0   0     0.000000000000     0.00000000     0.00000000
 H      1   0   0     0.995409150406     0.00000000     0.00000000
 C      1   2   0     1.420905005159   107.76075481     0.00000000
 H      3   1   2     1.093886099208   107.70260153   178.59009686
 H      3   1   2     1.099577705530   112.38514924    59.23526551
 H      3   1   2     1.098377490129   111.31676058   297.39093172

---------------------------
INTERNAL COORDINATES (A.U.)
---------------------------
 O      0   0   0     0.000000000000     0.00000000     0.00000000
 H      1   0   0     1.881050685467     0.00000000     0.00000000
 C      1   2   0     2.685121322069   107.76075481     0.00000000
 H      3   1   2     2.067145149207   107.70260153   178.59009686
 H      3   1   2     2.077900726418   112.38514924    59.23526551
 H      3   1   2     2.075632648008   111.31676058   297.39093172

---------------------
BASIS SET INFORMATION
---------------------
There are 3 groups of distinct atoms

 Group   1 Type O   : 11s6p2d1f contracted to 5s3p2d1f pattern {62111/411/11/1}
 Group   2 Type H   : 5s1p contracted to 3s1p pattern {311/1}
 Group   3 Type C   : 11s6p2d1f contracted to 5s3p2d1f pattern {62111/411/11/1}

Atom   0O    basis set group =>   1
Atom   1H    basis set group =>   2
Atom   2C    basis set group =>   3
Atom   3H    basis set group =>   2
Atom   4H    basis set group =>   2
Atom   5H    basis set group =>   2


           ************************************************************
           *        Program running with 12 parallel MPI-processes    *
           *              working on a common directory               *
           ************************************************************
------------------------------------------------------------------------------
                           ORCA GTO INTEGRAL CALCULATION
------------------------------------------------------------------------------

                         BASIS SET STATISTICS AND STARTUP INFO

 # of primitive gaussian shells          ...   64
 # of primitive gaussian functions       ...  124
 # of contracted shells                  ...   38
 # of contracted basis functions         ...   86
 Highest angular momentum                ...    3
 Maximum contraction depth               ...    6
 Integral package used                   ... LIBINT
 Integral threshhold            Thresh   ...  2.500e-11
 Primitive cut-off              TCut     ...  2.500e-12


------------------------------ INTEGRAL EVALUATION ----------------------------


 * One electron integrals 
 Pre-screening matrix                    ... done
 Shell pair data                         ... done (   0.000 sec)



           ************************************************************
           *        Program running with 12 parallel MPI-processes    *
           *              working on a common directory               *
           ************************************************************
-------------------------------------------------------------------------------
                                 ORCA SCF
-------------------------------------------------------------------------------

------------
SCF SETTINGS
------------
Hamiltonian:
 Ab initio Hamiltonian  Method          .... Hartree-Fock(GTOs)


General Settings:
 Integral files         IntName         .... 6meoh.boyd.etal.dset.1meoh.dset-orca.engrad-mp2.def2tzvp
 Hartree-Fock type      HFTyp           .... RHF
 Total Charge           Charge          ....    0
 Multiplicity           Mult            ....    1
 Number of Electrons    NEL             ....   18
 Basis Dimension        Dim             ....   86
 Nuclear Repulsion      ENuc            ....     40.0660274083 Eh

Convergence Acceleration:
 DIIS                   CNVDIIS         .... on
   Start iteration      DIISMaxIt       ....    12
   Startup error        DIISStart       ....  0.200000
   # of expansion vecs  DIISMaxEq       ....     5
   Bias factor          DIISBfac        ....   1.050
   Max. coefficient     DIISMaxC        ....  10.000
 Newton-Raphson         CNVNR           .... off
 SOSCF                  CNVSOSCF        .... on
   Start iteration      SOSCFMaxIt      ....   150
   Startup grad/error   SOSCFStart      ....  0.003300
 Level Shifting         CNVShift        .... on
   Level shift para.    LevelShift      ....    0.2500
   Turn off err/grad.   ShiftErr        ....    0.0010
 Zerner damping         CNVZerner       .... off
 Static damping         CNVDamp         .... on
   Fraction old density DampFac         ....    0.7000
   Max. Damping (<1)    DampMax         ....    0.9800
   Min. Damping (>=0)   DampMin         ....    0.0000
   Turn off err/grad.   DampErr         ....    0.1000
 Fernandez-Rico         CNVRico         .... off

SCF Procedure:
 Maximum # iterations   MaxIter         ....   125
 SCF integral mode      SCFMode         .... Direct
   Integral package                     .... LIBINT
 Reset frequency        DirectResetFreq ....    20
 Integral Threshold     Thresh          ....  2.500e-11 Eh
 Primitive CutOff       TCut            ....  2.500e-12 Eh

Convergence Tolerance:
 Convergence Check Mode ConvCheckMode   .... Total+1el-Energy
 Convergence forced     ConvForced      .... 1
 Energy Change          TolE            ....  1.000e-08 Eh
 1-El. energy change                    ....  1.000e-05 Eh
 Orbital Gradient       TolG            ....  1.000e-05
 Orbital Rotation angle TolX            ....  1.000e-05
 DIIS Error             TolErr          ....  5.000e-07


Diagonalization of the overlap matrix:
Smallest eigenvalue                        ... 1.677e-03
Time for diagonalization                   ...    0.069 sec
Threshold for overlap eigenvalues          ... 1.000e-08
Number of eigenvalues below threshold      ... 0
Time for construction of square roots      ...    0.001 sec
Total time needed                          ...    0.070 sec

-------------------
DFT GRID GENERATION
-------------------

General Integration Accuracy     IntAcc      ...  4.340
Radial Grid Type                 RadialGrid  ... Gauss-Chebyshev
Angular Grid (max. acc.)         AngularGrid ... Lebedev-110
Angular grid pruning method      GridPruning ... 3 (G Style)
Weight generation scheme         WeightScheme... Becke
Basis function cutoff            BFCut       ...    1.0000e-11
Integration weight cutoff        WCut        ...    1.0000e-14
Grids for H and He will be reduced by one unit

# of grid points (after initial pruning)     ...   6548 (   0.0 sec)
# of grid points (after weights+screening)   ...   6386 (   0.0 sec)
nearest neighbour list constructed           ...    0.0 sec
Grid point re-assignment to atoms done       ...    0.0 sec
Grid point division into batches done        ...    0.0 sec
Reduced shell lists constructed in    0.0 sec

Total number of grid points                  ...     6386
Total number of batches                      ...      103
Average number of points per batch           ...       62
Average number of grid points per atom       ...     1064
Average number of shells per batch           ...    28.80 (75.79%)
Average number of basis functions per batch  ...    67.60 (78.60%)
Average number of large shells per batch     ...    25.00 (86.81%)
Average number of large basis fcns per batch ...    59.80 (88.46%)
Maximum spatial batch extension              ...  13.13, 20.95, 15.02 au
Average spatial batch extension              ...   0.56,  0.65,  0.53 au

Time for grid setup =    0.016 sec

------------------------------
INITIAL GUESS: MODEL POTENTIAL
------------------------------
Loading Hartree-Fock densities                     ... done
Calculating cut-offs                               ... done
Setting up the integral package                    ... done
Initializing the effective Hamiltonian             ... done
Starting the Coulomb interaction                   ... done (   0.0 sec)
Reading the grid                                   ... done
Mapping shells                                     ... done
Starting the XC term evaluation                    ... done (   0.0 sec)
Transforming the Hamiltonian                       ... done (   0.0 sec)
Diagonalizing the Hamiltonian                      ... done (   0.0 sec)
Back transforming the eigenvectors                 ... done (   0.0 sec)
Now organizing SCF variables                       ... done
                      ------------------
                      INITIAL GUESS DONE (   0.1 sec)
                      ------------------
--------------
SCF ITERATIONS
--------------
ITER       Energy         Delta-E        Max-DP      RMS-DP      [F,P]     Damp
               ***  Starting incremental Fock matrix formation  ***
  0   -114.9685672829   0.000000000000 0.03696299  0.00133489  0.2885840 0.7000
  1   -115.0125817843  -0.044014501323 0.02559730  0.00098688  0.2178032 0.7000
                               ***Turning on DIIS***
  2   -115.0379453793  -0.025363595006 0.01521514  0.00060564  0.1628289 0.7000
  3   -115.3296263784  -0.291680999170 0.00778800  0.00033315  0.1199663 0.7000
  4   -115.2789270235   0.050699354960 0.01705917  0.00078884  0.0845680 0.0000
  5   -115.0995477289   0.179379294606 0.00224693  0.00010417  0.0064246 0.0000
                      *** Initiating the SOSCF procedure ***
                           *** Shutting down DIIS ***
                      *** Re-Reading the Fockian *** 
                      *** Removing any level shift *** 
ITER      Energy       Delta-E        Grad      Rot      Max-DP    RMS-DP
  6   -115.09114377   0.0084039545  0.000789  0.000789  0.000872  0.000053
               *** Restarting incremental Fock matrix formation ***
  7   -115.08941529   0.0017284806  0.000363  0.000377  0.000506  0.000029
  8   -115.08941757  -0.0000022762  0.000195  0.000214  0.000394  0.000020
  9   -115.08941813  -0.0000005603  0.000031  0.000028  0.000048  0.000003
 10   -115.08941815  -0.0000000161  0.000007  0.000014  0.000015  0.000001
                 **** Energy Check signals convergence ****
              ***Rediagonalizing the Fockian in SOSCF/NRSCF***

               *****************************************************
               *                     SUCCESS                       *
               *           SCF CONVERGED AFTER  11 CYCLES          *
               *****************************************************


----------------
TOTAL SCF ENERGY
----------------

Total Energy       :         -115.08941815 Eh           -3131.74228 eV

Components:
Nuclear Repulsion  :           40.06602741 Eh            1090.25203 eV
Electronic Energy  :         -155.15544556 Eh           -4221.99432 eV
One Electron Energy:         -236.43764889 Eh           -6433.79551 eV
Two Electron Energy:           81.28220333 Eh            2211.80120 eV

Virial components:
Potential Energy   :         -229.96390807 Eh           -6257.63607 eV
Kinetic Energy     :          114.87448992 Eh            3125.89379 eV
Virial Ratio       :            2.00187098


---------------
SCF CONVERGENCE
---------------

  Last Energy change         ...   -1.3523e-09  Tolerance :   1.0000e-08
  Last MAX-Density change    ...    4.1881e-06  Tolerance :   1.0000e-07
  Last RMS-Density change    ...    2.2705e-07  Tolerance :   5.0000e-09
  Last Orbital Gradient      ...    2.0059e-06  Tolerance :   1.0000e-05
  Last Orbital Rotation      ...    5.1411e-06  Tolerance :   1.0000e-05

             **** THE GBW FILE WAS UPDATED (6meoh.boyd.etal.dset.1meoh.dset-orca.engrad-mp2.def2tzvp.gbw) ****
             **** DENSITY FILE WAS UPDATED (6meoh.boyd.etal.dset.1meoh.dset-orca.engrad-mp2.def2tzvp.scfp) ****
             **** ENERGY FILE WAS UPDATED (6meoh.boyd.etal.dset.1meoh.dset-orca.engrad-mp2.def2tzvp.en.tmp) ****
             **** THE GBW FILE WAS UPDATED (6meoh.boyd.etal.dset.1meoh.dset-orca.engrad-mp2.def2tzvp.gbw) ****
             **** DENSITY FILE WAS UPDATED (6meoh.boyd.etal.dset.1meoh.dset-orca.engrad-mp2.def2tzvp.scfp) ****
----------------
ORBITAL ENERGIES
----------------

  NO   OCC          E(Eh)            E(eV) 
   0   2.0000     -20.557899      -559.4089 
   1   2.0000     -11.271520      -306.7137 
   2   2.0000      -1.347680       -36.6722 
   3   2.0000      -0.919351       -25.0168 
   4   2.0000      -0.682193       -18.5634 
   5   2.0000      -0.617251       -16.7963 
   6   2.0000      -0.591274       -16.0894 
   7   2.0000      -0.500404       -13.6167 
   8   2.0000      -0.449045       -12.2191 
   9   0.0000       0.134755         3.6669 
  10   0.0000       0.175853         4.7852 
  11   0.0000       0.229406         6.2425 
  12   0.0000       0.230477         6.2716 
  13   0.0000       0.254755         6.9322 
  14   0.0000       0.332631         9.0514 
  15   0.0000       0.339264         9.2318 
  16   0.0000       0.461014        12.5448 
  17   0.0000       0.521864        14.2006 
  18   0.0000       0.571421        15.5491 
  19   0.0000       0.608960        16.5706 
  20   0.0000       0.619960        16.8700 
  21   0.0000       0.657741        17.8980 
  22   0.0000       0.683278        18.5929 
  23   0.0000       0.705613        19.2007 
  24   0.0000       0.763735        20.7823 
  25   0.0000       0.882394        24.0112 
  26   0.0000       0.923132        25.1197 
  27   0.0000       0.951595        25.8942 
  28   0.0000       1.091150        29.6917 
  29   0.0000       1.115303        30.3489 
  30   0.0000       1.246418        33.9168 
  31   0.0000       1.534967        41.7686 
  32   0.0000       1.658196        45.1218 
  33   0.0000       1.707069        46.4517 
  34   0.0000       1.776523        48.3416 
  35   0.0000       1.792110        48.7658 
  36   0.0000       1.793430        48.8017 
  37   0.0000       1.840243        50.0756 
  38   0.0000       1.861557        50.6556 
  39   0.0000       1.964082        53.4454 
  40   0.0000       2.138233        58.1843 
  41   0.0000       2.208270        60.0901 
  42   0.0000       2.243784        61.0565 
  43   0.0000       2.287805        62.2543 
  44   0.0000       2.303462        62.6804 
  45   0.0000       2.442551        66.4652 
  46   0.0000       2.554109        69.5008 
  47   0.0000       2.555388        69.5356 
  48   0.0000       2.592005        70.5320 
  49   0.0000       2.633930        71.6729 
  50   0.0000       2.694677        73.3259 
  51   0.0000       2.779857        75.6437 
  52   0.0000       2.839148        77.2571 
  53   0.0000       2.902496        78.9809 
  54   0.0000       3.046838        82.9087 
  55   0.0000       3.112058        84.6834 
  56   0.0000       3.135346        85.3171 
  57   0.0000       3.245822        88.3233 
  58   0.0000       3.356133        91.3250 
  59   0.0000       3.420119        93.0662 
  60   0.0000       3.539200        96.3065 
  61   0.0000       3.636944        98.9663 
  62   0.0000       3.669811        99.8606 
  63   0.0000       3.723464       101.3206 
  64   0.0000       3.864038       105.1458 
  65   0.0000       3.891431       105.8912 
  66   0.0000       3.902962       106.2050 
  67   0.0000       4.252093       115.7053 
  68   0.0000       4.496165       122.3469 
  69   0.0000       4.534750       123.3968 
  70   0.0000       4.707975       128.1105 
  71   0.0000       4.866497       132.4241 
  72   0.0000       5.694604       154.9580 
  73   0.0000       5.771892       157.0612 
  74   0.0000       5.877509       159.9351 
  75   0.0000       6.164427       167.7426 
  76   0.0000       6.175930       168.0556 
  77   0.0000       6.327557       172.1816 
  78   0.0000       6.659014       181.2010 
  79   0.0000       6.948450       189.0769 
  80   0.0000       7.152740       194.6360 
  81   0.0000       7.218437       196.4237 
  82   0.0000       7.456855       202.9114 
  83   0.0000       7.590912       206.5592 
  84   0.0000      23.366145       635.8251 
  85   0.0000      45.147305      1228.5206 

                    ********************************
                    * MULLIKEN POPULATION ANALYSIS *
                    ********************************

-----------------------
MULLIKEN ATOMIC CHARGES
-----------------------
   0 O :   -0.543709
   1 H :    0.329312
   2 C :   -0.075112
   3 H :    0.108524
   4 H :    0.090599
   5 H :    0.090387
Sum of atomic charges:    0.0000000

--------------------------------
MULLIKEN REDUCED ORBITAL CHARGES
--------------------------------
  0 O s       :     3.805598  s :     3.805598
      pz      :     1.320254  p :     4.703631
      px      :     1.463458
      py      :     1.919918
      dz2     :     0.012932  d :     0.032745
      dxz     :     0.007451
      dyz     :     0.003314
      dx2y2   :     0.007474
      dxy     :     0.001575
      f0      :     0.000634  f :     0.001735
      f+1     :     0.000156
      f-1     :     0.000209
      f+2     :     0.000263
      f-2     :     0.000046
      f+3     :     0.000331
      f-3     :     0.000095
  1 H s       :     0.628013  s :     0.628013
      pz      :     0.010896  p :     0.042675
      px      :     0.017387
      py      :     0.014392
  2 C s       :     3.193282  s :     3.193282
      pz      :     0.666640  p :     2.757706
      px      :     1.064821
      py      :     1.026245
      dz2     :     0.022592  d :     0.115180
      dxz     :     0.035030
      dyz     :     0.036539
      dx2y2   :     0.008516
      dxy     :     0.012504
      f0      :     0.002733  f :     0.008945
      f+1     :     0.002037
      f-1     :     0.002710
      f+2     :     0.000177
      f-2     :     0.000139
      f+3     :     0.001063
      f-3     :     0.000085
  3 H s       :     0.870310  s :     0.870310
      pz      :     0.004041  p :     0.021166
      px      :     0.013409
      py      :     0.003716
  4 H s       :     0.889379  s :     0.889379
      pz      :     0.003472  p :     0.020022
      px      :     0.005042
      py      :     0.011509
  5 H s       :     0.889499  s :     0.889499
      pz      :     0.003529  p :     0.020114
      px      :     0.006545
      py      :     0.010040


                     *******************************
                     * LOEWDIN POPULATION ANALYSIS *
                     *******************************

----------------------
LOEWDIN ATOMIC CHARGES
----------------------
   0 O :   -0.128251
   1 H :    0.190357
   2 C :   -0.338834
   3 H :    0.101454
   4 H :    0.087677
   5 H :    0.087597

-------------------------------
LOEWDIN REDUCED ORBITAL CHARGES
-------------------------------
  0 O s       :     3.394572  s :     3.394572
      pz      :     1.386638  p :     4.660528
      px      :     1.460475
      py      :     1.813415
      dz2     :     0.023973  d :     0.069000
      dxz     :     0.022168
      dyz     :     0.012393
      dx2y2   :     0.009440
      dxy     :     0.001025
      f0      :     0.001253  f :     0.004151
      f+1     :     0.001057
      f-1     :     0.000872
      f+2     :     0.000425
      f-2     :     0.000054
      f+3     :     0.000433
      f-3     :     0.000057
  1 H s       :     0.666054  s :     0.666054
      pz      :     0.029112  p :     0.143589
      px      :     0.074076
      py      :     0.040401
  2 C s       :     2.861708  s :     2.861708
      pz      :     0.815653  p :     2.993319
      px      :     1.096700
      py      :     1.080965
      dz2     :     0.115846  d :     0.425973
      dxz     :     0.108578
      dyz     :     0.131954
      dx2y2   :     0.030105
      dxy     :     0.039490
      f0      :     0.016730  f :     0.057835
      f+1     :     0.014061
      f-1     :     0.018781
      f+2     :     0.002954
      f-2     :     0.002407
      f+3     :     0.002689
      f-3     :     0.000211
  3 H s       :     0.839846  s :     0.839846
      pz      :     0.010926  p :     0.058700
      px      :     0.035420
      py      :     0.012355
  4 H s       :     0.853942  s :     0.853942
      pz      :     0.010856  p :     0.058381
      px      :     0.016212
      py      :     0.031313
  5 H s       :     0.853901  s :     0.853901
      pz      :     0.010960  p :     0.058502
      px      :     0.019785
      py      :     0.027757


                      *****************************
                      * MAYER POPULATION ANALYSIS *
                      *****************************

  NA   - Mulliken gross atomic population
  ZA   - Total nuclear charge
  QA   - Mulliken gross atomic charge
  VA   - Mayer's total valence
  BVA  - Mayer's bonded valence
  FA   - Mayer's free valence

  ATOM       NA         ZA         QA         VA         BVA        FA
  0 O      8.5437     8.0000    -0.5437     1.7951     1.7951    -0.0000
  1 H      0.6707     1.0000     0.3293     0.8984     0.8984     0.0000
  2 C      6.0751     6.0000    -0.0751     3.9007     3.9007     0.0000
  3 H      0.8915     1.0000     0.1085     0.9623     0.9623    -0.0000
  4 H      0.9094     1.0000     0.0906     0.9608     0.9608     0.0000
  5 H      0.9096     1.0000     0.0904     0.9613     0.9613     0.0000

  Mayer bond orders larger than 0.100000
B(  0-O ,  1-H ) :   0.8876 B(  0-O ,  2-C ) :   0.9343 B(  2-C ,  3-H ) :   0.9831 
B(  2-C ,  4-H ) :   0.9870 B(  2-C ,  5-H ) :   0.9883 

-------
TIMINGS
-------

Total SCF time: 0 days 0 hours 0 min 1 sec 

Total time                  ....       1.563 sec
Sum of individual times     ....       1.342 sec  ( 85.8%)

Fock matrix formation       ....       1.232 sec  ( 78.8%)
Diagonalization             ....       0.006 sec  (  0.4%)
Density matrix formation    ....       0.001 sec  (  0.1%)
Population analysis         ....       0.008 sec  (  0.5%)
Initial guess               ....       0.073 sec  (  4.7%)
Orbital Transformation      ....       0.000 sec  (  0.0%)
Orbital Orthonormalization  ....       0.000 sec  (  0.0%)
DIIS solution               ....       0.003 sec  (  0.2%)
SOSCF solution              ....       0.003 sec  (  0.2%)


           ************************************************************
           *        Program running with 12 parallel MPI-processes    *
           *              working on a common directory               *
           ************************************************************

[...]
------------------------------------

Gathering the parts of the W-matrix              ...                                                      done
Forming the Z-density                            ... done
Transforming Z to the AO basis                   ... done
Calculating G(Z)                                 ... done
Finalizing the W-matrix                          ...                                                      done
Transforming W to the AO basis and storing       ... done

                *********************************************
                * UNRELAXED MP2 DENSITY POPULATION ANALYSIS *
                *********************************************

------------------------------------------------------------------------------
                           ORCA POPULATION ANALYSIS
------------------------------------------------------------------------------
Input electron density              ... 6meoh.boyd.etal.dset.1meoh.dset-orca.engrad-mp2.def2tzvp_job42.pmp2ur
BaseName (.gbw .S,...)              ... 6meoh.boyd.etal.dset.1meoh.dset-orca.engrad-mp2.def2tzvp_job42

                    ********************************
                    * MULLIKEN POPULATION ANALYSIS *
                    ********************************

-----------------------
MULLIKEN ATOMIC CHARGES
-----------------------
   0 O :   -0.532626
   1 H :    0.326190
   2 C :   -0.089489
   3 H :    0.110933
   4 H :    0.092483
   5 H :    0.092509
Sum of atomic charges:   -0.0000000

--------------------------------
MULLIKEN REDUCED ORBITAL CHARGES
--------------------------------
  0 O s       :     3.795179  s :     3.795179
      pz      :     1.529911  p :     4.672941
      px      :     1.434403
      py      :     1.708627
      dz2     :     0.012250  d :     0.060048
      dxz     :     0.009570
      dyz     :     0.013069
      dx2y2   :     0.015480
      dxy     :     0.009678
      f0      :     0.000518  f :     0.004458
      f+1     :     0.000498
      f-1     :     0.000953
      f+2     :     0.000718
      f-2     :     0.000523
      f+3     :     0.000627
      f-3     :     0.000621
  1 H s       :     0.627626  s :     0.627626
      pz      :     0.018487  p :     0.046184
      px      :     0.010352
      py      :     0.017345
  2 C s       :     3.190196  s :     3.190196
      pz      :     1.026826  p :     2.750939
      px      :     0.705924
      py      :     1.018188
      dz2     :     0.020823  d :     0.136003
      dxz     :     0.030984
      dyz     :     0.023187
      dx2y2   :     0.022609
      dxy     :     0.038400
      f0      :     0.001050  f :     0.012351
      f+1     :     0.001814
      f-1     :     0.001516
      f+2     :     0.001849
      f-2     :     0.001502
      f+3     :     0.002423
      f-3     :     0.002197
  3 H s       :     0.864790  s :     0.864790
      pz      :     0.012212  p :     0.024277
      px      :     0.003430
      py      :     0.008635
  4 H s       :     0.884298  s :     0.884298
      pz      :     0.005180  p :     0.023219
      px      :     0.006753
      py      :     0.011286
  5 H s       :     0.884281  s :     0.884281
      pz      :     0.009630  p :     0.023210
      px      :     0.006127
      py      :     0.007454


                     *******************************
                     * LOEWDIN POPULATION ANALYSIS *
                     *******************************

----------------------
LOEWDIN ATOMIC CHARGES
----------------------
   0 O :   -0.109773
   1 H :    0.178562
   2 C :   -0.350883
   3 H :    0.103443
   4 H :    0.089320
   5 H :    0.089330

-------------------------------
LOEWDIN REDUCED ORBITAL CHARGES
-------------------------------
  0 O s       :     3.378941  s :     3.378941
      pz      :     1.493599  p :     4.625235
      px      :     1.494608
      py      :     1.637029
      dz2     :     0.018131  d :     0.098433
      dxz     :     0.017669
      dyz     :     0.020308
      dx2y2   :     0.024574
      dxy     :     0.017751
      f0      :     0.000720  f :     0.007163
      f+1     :     0.000922
      f-1     :     0.001283
      f+2     :     0.001252
      f-2     :     0.000689
      f+3     :     0.001101
      f-3     :     0.001196
  1 H s       :     0.666699  s :     0.666699
      pz      :     0.068978  p :     0.154738
      px      :     0.029485
      py      :     0.056276
  2 C s       :     2.859613  s :     2.859613
      pz      :     1.064143  p :     2.979494
      px      :     0.851068
      py      :     1.064283
      dz2     :     0.060103  d :     0.448586
      dxz     :     0.099046
      dyz     :     0.066708
      dx2y2   :     0.090967
      dxy     :     0.131762
      f0      :     0.005154  f :     0.063190
      f+1     :     0.012243
      f-1     :     0.004174
      f+2     :     0.009809
      f-2     :     0.004960
      f+3     :     0.014939
      f-3     :     0.011910
  3 H s       :     0.832891  s :     0.832891
      pz      :     0.031744  p :     0.063666
      px      :     0.009063
      py      :     0.022859
  4 H s       :     0.847277  s :     0.847277
      pz      :     0.014960  p :     0.063403
      px      :     0.017756
      py      :     0.030687
  5 H s       :     0.847269  s :     0.847269
      pz      :     0.026573  p :     0.063401
      px      :     0.016176
      py      :     0.020652


                      *****************************
                      * MAYER POPULATION ANALYSIS *
                      *****************************

  NA   - Mulliken gross atomic population
  ZA   - Total nuclear charge
  QA   - Mulliken gross atomic charge
  VA   - Mayer's total valence
  BVA  - Mayer's bonded valence
  FA   - Mayer's free valence

  ATOM       NA         ZA         QA         VA         BVA        FA
  0 O      8.5326     8.0000    -0.5326     2.0939     1.6932     0.4007
  1 H      0.6738     1.0000     0.3262     0.9065     0.8553     0.0513
  2 C      6.0895     6.0000    -0.0895     4.0050     3.7274     0.2777
  3 H      0.8891     1.0000     0.1109     0.9709     0.9239     0.0470
  4 H      0.9075     1.0000     0.0925     0.9708     0.9214     0.0494
  5 H      0.9075     1.0000     0.0925     0.9708     0.9215     0.0494

  Mayer bond orders larger than 0.100000
B(  0-O ,  1-H ) :   0.8453 B(  0-O ,  2-C ) :   0.8760 B(  2-C ,  3-H ) :   0.9464 
B(  2-C ,  4-H ) :   0.9488 B(  2-C ,  5-H ) :   0.9488 


                *******************************************
                * RELAXED MP2 DENSITY POPULATION ANALYSIS *
                *******************************************

------------------------------------------------------------------------------
                           ORCA POPULATION ANALYSIS
------------------------------------------------------------------------------
Input electron density              ... 6meoh.boyd.etal.dset.1meoh.dset-orca.engrad-mp2.def2tzvp_job42.pmp2re
BaseName (.gbw .S,...)              ... 6meoh.boyd.etal.dset.1meoh.dset-orca.engrad-mp2.def2tzvp_job42

                    ********************************
                    * MULLIKEN POPULATION ANALYSIS *
                    ********************************

-----------------------
MULLIKEN ATOMIC CHARGES
-----------------------
   0 O :   -0.495279
   1 H :    0.320742
   2 C :   -0.171286
   3 H :    0.129101
   4 H :    0.108347
   5 H :    0.108376
Sum of atomic charges:   -0.0000000

--------------------------------
MULLIKEN REDUCED ORBITAL CHARGES
--------------------------------
  0 O s       :     3.796257  s :     3.796257
      pz      :     1.516438  p :     4.636701
      px      :     1.424637
      py      :     1.695626
      dz2     :     0.011589  d :     0.057923
      dxz     :     0.009690
      dyz     :     0.012331
      dx2y2   :     0.014444
      dxy     :     0.009868
      f0      :     0.000515  f :     0.004398
      f+1     :     0.000492
      f-1     :     0.000926
      f+2     :     0.000707
      f-2     :     0.000525
      f+3     :     0.000614
      f-3     :     0.000619
  1 H s       :     0.632438  s :     0.632438
      pz      :     0.018128  p :     0.046820
      px      :     0.010953
      py      :     0.017739
  2 C s       :     3.212036  s :     3.212036
      pz      :     1.052747  p :     2.820968
      px      :     0.723237
      py      :     1.044984
      dz2     :     0.019983  d :     0.126480
      dxz     :     0.029175
      dyz     :     0.019472
      dx2y2   :     0.022566
      dxy     :     0.035283
      f0      :     0.001010  f :     0.011801
      f+1     :     0.001746
      f-1     :     0.001420
      f+2     :     0.001746
      f-2     :     0.001434
      f+3     :     0.002322
      f-3     :     0.002124
  3 H s       :     0.847787  s :     0.847787
      pz      :     0.011246  p :     0.023112
      px      :     0.003616
      py      :     0.008250
  4 H s       :     0.869539  s :     0.869539
      pz      :     0.005290  p :     0.022114
      px      :     0.006450
      py      :     0.010374
  5 H s       :     0.869521  s :     0.869521
      pz      :     0.008981  p :     0.022104
      px      :     0.005925
      py      :     0.007197


                     *******************************
                     * LOEWDIN POPULATION ANALYSIS *
                     *******************************

----------------------
LOEWDIN ATOMIC CHARGES
----------------------
   0 O :   -0.097008
   1 H :    0.181100
   2 C :   -0.385623
   3 H :    0.110713
   4 H :    0.095398
   5 H :    0.095420

-------------------------------
LOEWDIN REDUCED ORBITAL CHARGES
-------------------------------
  0 O s       :     3.381697  s :     3.381697
      pz      :     1.491638  p :     4.610129
      px      :     1.487018
      py      :     1.631473
      dz2     :     0.017827  d :     0.097909
      dxz     :     0.017953
      dyz     :     0.019926
      dx2y2   :     0.024123
      dxy     :     0.018081
      f0      :     0.000730  f :     0.007273
      f+1     :     0.000936
      f-1     :     0.001296
      f+2     :     0.001276
      f-2     :     0.000694
      f+3     :     0.001123
      f-3     :     0.001219
  1 H s       :     0.663577  s :     0.663577
      pz      :     0.068737  p :     0.155323
      px      :     0.029969
      py      :     0.056616
  2 C s       :     2.865452  s :     2.865452
      pz      :     1.079221  p :     3.019259
      px      :     0.860152
      py      :     1.079886
      dz2     :     0.058360  d :     0.439279
      dxz     :     0.097742
      dyz     :     0.062952
      dx2y2   :     0.089269
      dxy     :     0.130956
      f0      :     0.005001  f :     0.061633
      f+1     :     0.012103
      f-1     :     0.004035
      f+2     :     0.009533
      f-2     :     0.004771
      f+3     :     0.014757
      f-3     :     0.011433
  3 H s       :     0.825269  s :     0.825269
      pz      :     0.031526  p :     0.064018
      px      :     0.009504
      py      :     0.022988
  4 H s       :     0.840471  s :     0.840471
      pz      :     0.015390  p :     0.064131
      px      :     0.018203
      py      :     0.030539
  5 H s       :     0.840450  s :     0.840450
      pz      :     0.026572  p :     0.064130
      px      :     0.016663
      py      :     0.020895


                      *****************************
                      * MAYER POPULATION ANALYSIS *
                      *****************************

  NA   - Mulliken gross atomic population
  ZA   - Total nuclear charge
  QA   - Mulliken gross atomic charge
  VA   - Mayer's total valence
  BVA  - Mayer's bonded valence
  FA   - Mayer's free valence

  ATOM       NA         ZA         QA         VA         BVA        FA
  0 O      8.4953     8.0000    -0.4953     2.1491     1.7547     0.3944
  1 H      0.6793     1.0000     0.3207     0.9090     0.8576     0.0514
  2 C      6.1713     6.0000    -0.1713     4.0264     3.7510     0.2754
  3 H      0.8709     1.0000     0.1291     0.9623     0.9159     0.0464
  4 H      0.8917     1.0000     0.1083     0.9635     0.9148     0.0487
  5 H      0.8916     1.0000     0.1084     0.9636     0.9149     0.0487

  Mayer bond orders larger than 0.100000
B(  0-O ,  1-H ) :   0.8457 B(  0-O ,  2-C ) :   0.9279 B(  2-C ,  3-H ) :   0.9382 
B(  2-C ,  4-H ) :   0.9381 B(  2-C ,  5-H ) :   0.9382 


----------------------------------
MP2 DERIVATIVE INTEGRAL GENERATION
----------------------------------


Input Wavefunction Amplitudes       ... 6meoh.boyd.etal.dset.1meoh.dset-orca.engrad-mp2.def2tzvp_job42.mp2tsaa.tmp
Input Correlated Electron Density   ... 6meoh.boyd.etal.dset.1meoh.dset-orca.engrad-mp2.def2tzvp_job42.pmp2re
Input Energy Weighted Density       ... 6meoh.boyd.etal.dset.1meoh.dset-orca.engrad-mp2.def2tzvp_job42.wmp2.tmp
Input SCF Electron Density          ... 6meoh.boyd.etal.dset.1meoh.dset-orca.engrad-mp2.def2tzvp_job42.scfp

One-Electron Terms    ...
                        ... One-Electron Terms done
Prescreening matrices              ... done

Batch handling in the gradient evaluation:
Memory available                      ... 8000.0 MB
Memory per occupied orbital in Q2     ...    0.4 MB
Memory per occupied orbital in Q3     ...    0.0 MB
Total memory requirement per |i>      ...    0.4 MB
Max. Number of orbitals possible      ...  18729
Number of orbitals treated per batch  ...      7
Number of batches to be done          ...      1
Batch   0: i=    2 ...     8

---------------------------------------
MP2 TOTAL ENERGY:     -115.507291701 Eh
---------------------------------------

The final MP2 gradient
  0:   0.00193408   0.00708946  -0.00989175
  1:  -0.00201515  -0.00850863   0.01184009
  2:  -0.00715207   0.00003320  -0.00044196
  3:   0.00141688   0.00246453  -0.00333236
  4:   0.00300046  -0.00315507  -0.00098942
  5:   0.00281580   0.00207650   0.00281541

-----------------------------------
NORM OF THE MP2 GRADIENT:  0.021889
-----------------------------------

-------------------------   --------------------
FINAL SINGLE POINT ENERGY      -115.507291701309
-------------------------   --------------------


                            ***************************************
                            *     ORCA property calculations      *
                            ***************************************

                                    ---------------------
                                    Active property flags
                                    ---------------------
   (+) Dipole Moment


------------------------------------------------------------------------------
                       ORCA ELECTRIC PROPERTIES CALCULATION
------------------------------------------------------------------------------

Dipole Moment Calculation                       ... on
Quadrupole Moment Calculation                   ... off
Polarizability Calculation                      ... off
GBWName                                         ... 6meoh.boyd.etal.dset.1meoh.dset-orca.engrad-mp2.def2tzvp_job42.gbw
Electron density file                           ... 6meoh.boyd.etal.dset.1meoh.dset-orca.engrad-mp2.def2tzvp_job42.scfp
The origin for moment calculation is the CENTER OF MASS  = ( 0.000080,  0.000016 -0.000017)

-------------
DIPOLE MOMENT
-------------
                                X             Y             Z
Electronic contribution:     -1.71001      -0.33180       0.36267
Nuclear contribution   :      2.29137       0.10141      -0.00492
                        -----------------------------------------
Total Dipole Moment    :      0.58136      -0.23039       0.35775
                        -----------------------------------------
Magnitude (a.u.)       :      0.72045
Magnitude (Debye)      :      1.83124



--------------------
Rotational spectrum 
--------------------
 
Rotational constants in cm-1:     4.239892     0.825573     0.795752 
Rotational constants in MHz : 127108.759161 24750.043032 23856.036676 

 Dipole components along the rotational axes: 
x,y,z [a.u.] :     0.372982    -0.616388    -0.000139 
x,y,z [Debye]:     0.948045    -1.566733    -0.000354 

 

                         *** MP2 UNRELAXED DENSITY ***

------------------------------------------------------------------------------
                       ORCA ELECTRIC PROPERTIES CALCULATION
------------------------------------------------------------------------------

Dipole Moment Calculation                       ... on
Quadrupole Moment Calculation                   ... off
Polarizability Calculation                      ... off
GBWName                                         ... 6meoh.boyd.etal.dset.1meoh.dset-orca.engrad-mp2.def2tzvp_job42.gbw
Electron density file                           ... 6meoh.boyd.etal.dset.1meoh.dset-orca.engrad-mp2.def2tzvp_job42.pmp2ur
The origin for moment calculation is the CENTER OF MASS  = ( 0.000080,  0.000016 -0.000017)

-------------
DIPOLE MOMENT
-------------
                                X             Y             Z
Electronic contribution:     -1.72423      -0.32925       0.35826
Nuclear contribution   :      2.29137       0.10141      -0.00492
                        -----------------------------------------
Total Dipole Moment    :      0.56714      -0.22784       0.35334
                        -----------------------------------------
Magnitude (a.u.)       :      0.70598
Magnitude (Debye)      :      1.79446



--------------------
Rotational spectrum 
--------------------
 
Rotational constants in cm-1:     4.239892     0.825573     0.795752 
Rotational constants in MHz : 127108.759161 24750.043032 23856.036676 

 Dipole components along the rotational axes: 
x,y,z [a.u.] :     0.361812    -0.606219    -0.000147 
x,y,z [Debye]:     0.919653    -1.540887    -0.000373 

 

                           *** MP2 RELAXED DENSITY ***

------------------------------------------------------------------------------
                       ORCA ELECTRIC PROPERTIES CALCULATION
------------------------------------------------------------------------------

Dipole Moment Calculation                       ... on
Quadrupole Moment Calculation                   ... off
Polarizability Calculation                      ... off
GBWName                                         ... 6meoh.boyd.etal.dset.1meoh.dset-orca.engrad-mp2.def2tzvp_job42.gbw
Electron density file                           ... 6meoh.boyd.etal.dset.1meoh.dset-orca.engrad-mp2.def2tzvp_job42.pmp2re
The origin for moment calculation is the CENTER OF MASS  = ( 0.000080,  0.000016 -0.000017)

-------------
DIPOLE MOMENT
-------------
                                X             Y             Z
Electronic contribution:     -1.74542      -0.32743       0.35453
Nuclear contribution   :      2.29137       0.10141      -0.00492
                        -----------------------------------------
Total Dipole Moment    :      0.54595      -0.22602       0.34961
                        -----------------------------------------
Magnitude (a.u.)       :      0.68657
Magnitude (Debye)      :      1.74512



--------------------
Rotational spectrum 
--------------------
 
Rotational constants in cm-1:     4.239892     0.825573     0.795752 
Rotational constants in MHz : 127108.759161 24750.043032 23856.036676 

 Dipole components along the rotational axes: 
x,y,z [a.u.] :     0.343824    -0.594273    -0.000197 
x,y,z [Debye]:     0.873930    -1.510521    -0.000500 

 

Timings for individual modules:

Sum of individual times         ...        5.892 sec (=   0.098 min)
GTO integral calculation        ...        0.845 sec (=   0.014 min)  14.3 %
SCF iterations                  ...        2.691 sec (=   0.045 min)  45.7 %
MP2 module                      ...        2.357 sec (=   0.039 min)  40.0 %



                             ****ORCA TERMINATED NORMALLY****
TOTAL RUN TIME: 0 days 0 hours 4 minutes 43 seconds 427 msec
