
                                 *****************
                                 * O   R   C   A *
                                 *****************

           --- An Ab Initio, DFT and Semiempirical electronic structure package ---

                  #######################################################
                  #                        -***-                        #
                  #          Department of theory and spectroscopy      #
                  #               Directorship: Frank Neese             #
                  #        Max Planck Institute fuer Kohlenforschung    #
                  #                Kaiser Wilhelm Platz 1               #
                  #                 D-45470 Muelheim/Ruhr               #
                  #                      Germany                        #
                  #                                                     #
                  #                  All rights reserved                #
                  #                        -***-                        #
                  #######################################################


                         Program Version 4.2.0 -  RELEASE  -


 With contributions from (in alphabetic order):
   Daniel Aravena         : Magnetic Suceptibility
   Michael Atanasov       : Ab Initio Ligand Field Theory (pilot matlab implementation)
   Alexander A. Auer      : GIAO ZORA, VPT2
   Ute Becker             : Parallelization
   Giovanni Bistoni       : ED, misc. LED, open-shell LED, HFLED
   Martin Brehm           : Molecular dynamics
   Dmytro Bykov           : SCF Hessian
   Vijay G. Chilkuri      : MRCI spin determinant printing, contributions to CSF-ICE
   Dipayan Datta          : RHF DLPNO-CCSD density
   Achintya Kumar Dutta   : EOM-CC, STEOM-CC
   Dmitry Ganyushin       : Spin-Orbit,Spin-Spin,Magnetic field MRCI
   Miquel Garcia          : C-PCM Hessian, Gaussian charge scheme
   Yang Guo               : DLPNO-NEVPT2, CIM, IAO-localization
   Andreas Hansen         : Spin unrestricted coupled pair/coupled cluster methods
   Benjamin Helmich-Paris : CASSCF linear response (MC-RPA)
   Lee Huntington         : MR-EOM, pCC
   Robert Izsak           : Overlap fitted RIJCOSX, COSX-SCS-MP3, EOM
   Christian Kollmar      : KDIIS, OOCD, Brueckner-CCSD(T), CCSD density
   Simone Kossmann        : Meta GGA functionals, TD-DFT gradient, OOMP2, MP2 Hessian
   Martin Krupicka        : AUTO-CI
   Lucas Lang             : DCDCAS
   Dagmar Lenk            : GEPOL surface, SMD
   Dimitrios Liakos       : Extrapolation schemes; Compound Job, initial MDCI parallelization
   Dimitrios Manganas     : Further ROCIS development; embedding schemes
   Dimitrios Pantazis     : SARC Basis sets
   Taras Petrenko         : DFT Hessian,TD-DFT gradient, ASA, ECA, R-Raman, ABS, FL, XAS/XES, NRVS
   Peter Pinski           : DLPNO-MP2, DLPNO-MP2 Gradient
   Christoph Reimann      : Effective Core Potentials
   Marius Retegan         : Local ZFS, SOC
   Christoph Riplinger    : Optimizer, TS searches, QM/MM, DLPNO-CCSD(T), (RO)-DLPNO pert. Triples
   Tobias Risthaus        : Range-separated hybrids, TD-DFT gradient, RPA, STAB
   Michael Roemelt        : Original ROCIS implementation
   Masaaki Saitow         : Open-shell DLPNO-CCSD energy and density
   Barbara Sandhoefer     : DKH picture change effects
   Avijit Sen             : IP-ROCIS
   Kantharuban Sivalingam : CASSCF convergence, NEVPT2, FIC-MRCI
   Bernardo de Souza      : ESD, SOC TD-DFT
   Georgi Stoychev        : AutoAux, RI-MP2 NMR
   Willem Van den Heuvel  : Paramagnetic NMR
   Boris Wezisla          : Elementary symmetry handling
   Frank Wennmohs         : Technical directorship


 We gratefully acknowledge several colleagues who have allowed us to
 interface, adapt or use parts of their codes:
   Stefan Grimme, W. Hujo, H. Kruse,             : VdW corrections, initial TS optimization,
                  C. Bannwarth                     DFT functionals, gCP, sTDA/sTD-DF
   Ed Valeev, F. Pavosevic, A. Kumar             : LibInt (2-el integral package), F12 methods
   Garnet Chan, S. Sharma, J. Yang, R. Olivares  : DMRG
   Ulf Ekstrom                                   : XCFun DFT Library
   Mihaly Kallay                                 : mrcc  (arbitrary order and MRCC methods)
   Andreas Klamt, Michael Diedenhofen            : otool_cosmo (COSMO solvation model)
   Jiri Pittner, Ondrej Demel                    : Mk-CCSD
   Frank Weinhold                                : gennbo (NPA and NBO analysis)
   Christopher J. Cramer and Donald G. Truhlar   : smd solvation model
   Lars Goerigk                                  : TD-DFT with DH, B97 family of functionals
   V. Asgeirsson, H. Jonsson                     : NEB implementation
   FAccTs GmbH                                   : IRC, NEB, NEB-TS, Multilevel, MM, QM/MM, CI optimization
   S Lehtola, MJT Oliveira, MAL Marques          : LibXC Library


 Your calculation uses the libint2 library for the computation of 2-el integrals
 For citations please refer to: http://libint.valeyev.net

 Your ORCA version has been built with support for libXC version: 4.2.3
 For citations please refer to: https://tddft.org/programs/libxc/

 This ORCA versions uses:
   CBLAS   interface :  Fast vector & matrix operations
   LAPACKE interface :  Fast linear algebra routines
   SCALAPACK package :  Parallel linear algebra routines


----- Orbital basis set information -----
Your calculation utilizes the basis: def2-TZVP
   F. Weigend and R. Ahlrichs, Phys. Chem. Chem. Phys. 7, 3297 (2005).

================================================================================
                                        WARNINGS
                       Please study these warnings very carefully!
================================================================================


WARNING: The frozen-core approximation for MP2-gradient calculations is turned on by default.

INFO   : the flag for use of LIBINT has been found!

----- Orbital basis set information -----
Your calculation utilizes the basis: def2-TZVP
   F. Weigend and R. Ahlrichs, Phys. Chem. Chem. Phys. 7, 3297 (2005).

================================================================================
                                        WARNINGS
                       Please study these warnings very carefully!
================================================================================


WARNING: The frozen-core approximation for MP2-gradient calculations is turned on by default.

INFO   : the flag for use of LIBINT has been found!

----- Orbital basis set information -----
Your calculation utilizes the basis: def2-TZVP
   F. Weigend and R. Ahlrichs, Phys. Chem. Chem. Phys. 7, 3297 (2005).

================================================================================
                                        WARNINGS
                       Please study these warnings very carefully!
================================================================================


WARNING: The frozen-core approximation for MP2-gradient calculations is turned on by default.

INFO   : the flag for use of LIBINT has been found!

----- Orbital basis set information -----
Your calculation utilizes the basis: def2-TZVP
   F. Weigend and R. Ahlrichs, Phys. Chem. Chem. Phys. 7, 3297 (2005).

================================================================================
                                        WARNINGS
                       Please study these warnings very carefully!
================================================================================


WARNING: The frozen-core approximation for MP2-gradient calculations is turned on by default.

INFO   : the flag for use of LIBINT has been found!

----- Orbital basis set information -----
Your calculation utilizes the basis: def2-TZVP
   F. Weigend and R. Ahlrichs, Phys. Chem. Chem. Phys. 7, 3297 (2005).

================================================================================
                                        WARNINGS
                       Please study these warnings very carefully!
================================================================================


WARNING: The frozen-core approximation for MP2-gradient calculations is turned on by default.

INFO   : the flag for use of LIBINT has been found!

----- Orbital basis set information -----
Your calculation utilizes the basis: def2-TZVP
   F. Weigend and R. Ahlrichs, Phys. Chem. Chem. Phys. 7, 3297 (2005).

================================================================================
                                        WARNINGS
                       Please study these warnings very carefully!
================================================================================


WARNING: The frozen-core approximation for MP2-gradient calculations is turned on by default.

INFO   : the flag for use of LIBINT has been found!

----- Orbital basis set information -----
Your calculation utilizes the basis: def2-TZVP
   F. Weigend and R. Ahlrichs, Phys. Chem. Chem. Phys. 7, 3297 (2005).

================================================================================
                                        WARNINGS
                       Please study these warnings very carefully!
================================================================================


WARNING: The frozen-core approximation for MP2-gradient calculations is turned on by default.

INFO   : the flag for use of LIBINT has been found!

----- Orbital basis set information -----
Your calculation utilizes the basis: def2-TZVP
   F. Weigend and R. Ahlrichs, Phys. Chem. Chem. Phys. 7, 3297 (2005).

================================================================================
                                        WARNINGS
                       Please study these warnings very carefully!
================================================================================


WARNING: The frozen-core approximation for MP2-gradient calculations is turned on by default.

INFO   : the flag for use of LIBINT has been found!

----- Orbital basis set information -----
Your calculation utilizes the basis: def2-TZVP
   F. Weigend and R. Ahlrichs, Phys. Chem. Chem. Phys. 7, 3297 (2005).

================================================================================
                                        WARNINGS
                       Please study these warnings very carefully!
================================================================================


WARNING: The frozen-core approximation for MP2-gradient calculations is turned on by default.

INFO   : the flag for use of LIBINT has been found!

----- Orbital basis set information -----
Your calculation utilizes the basis: def2-TZVP
   F. Weigend and R. Ahlrichs, Phys. Chem. Chem. Phys. 7, 3297 (2005).

================================================================================
                                        WARNINGS
                       Please study these warnings very carefully!
================================================================================


WARNING: The frozen-core approximation for MP2-gradient calculations is turned on by default.

INFO   : the flag for use of LIBINT has been found!

----- Orbital basis set information -----
Your calculation utilizes the basis: def2-TZVP
   F. Weigend and R. Ahlrichs, Phys. Chem. Chem. Phys. 7, 3297 (2005).

================================================================================
                                        WARNINGS
                       Please study these warnings very carefully!
================================================================================


WARNING: The frozen-core approximation for MP2-gradient calculations is turned on by default.

INFO   : the flag for use of LIBINT has been found!

----- Orbital basis set information -----
Your calculation utilizes the basis: def2-TZVP
   F. Weigend and R. Ahlrichs, Phys. Chem. Chem. Phys. 7, 3297 (2005).

================================================================================
                                        WARNINGS
                       Please study these warnings very carefully!
================================================================================


WARNING: The frozen-core approximation for MP2-gradient calculations is turned on by default.

INFO   : the flag for use of LIBINT has been found!

----- Orbital basis set information -----
Your calculation utilizes the basis: def2-TZVP
   F. Weigend and R. Ahlrichs, Phys. Chem. Chem. Phys. 7, 3297 (2005).

================================================================================
                                        WARNINGS
                       Please study these warnings very carefully!
================================================================================


WARNING: The frozen-core approximation for MP2-gradient calculations is turned on by default.

INFO   : the flag for use of LIBINT has been found!

----- Orbital basis set information -----
Your calculation utilizes the basis: def2-TZVP
   F. Weigend and R. Ahlrichs, Phys. Chem. Chem. Phys. 7, 3297 (2005).

================================================================================
                                        WARNINGS
                       Please study these warnings very carefully!
================================================================================


WARNING: The frozen-core approximation for MP2-gradient calculations is turned on by default.

INFO   : the flag for use of LIBINT has been found!

----- Orbital basis set information -----
Your calculation utilizes the basis: def2-TZVP
   F. Weigend and R. Ahlrichs, Phys. Chem. Chem. Phys. 7, 3297 (2005).

================================================================================
                                        WARNINGS
                       Please study these warnings very carefully!
================================================================================


WARNING: The frozen-core approximation for MP2-gradient calculations is turned on by default.

INFO   : the flag for use of LIBINT has been found!

----- Orbital basis set information -----
Your calculation utilizes the basis: def2-TZVP
   F. Weigend and R. Ahlrichs, Phys. Chem. Chem. Phys. 7, 3297 (2005).

================================================================================
                                        WARNINGS
                       Please study these warnings very carefully!
================================================================================


WARNING: The frozen-core approximation for MP2-gradient calculations is turned on by default.

INFO   : the flag for use of LIBINT has been found!

================================================================================
                                       INPUT FILE
================================================================================
NAME = 16mecn.remya.etal.1mecn-orca.engrad-mp2.def2tzvp.inp
|  1> # 16mecn.remya.etal.1mecn-orca.engrad-mp2.def2tzvp
|  2> ! MP2 def2-TZVP EnGrad TightSCF FrozenCore
|  3> 
|  4> %pal
|  5>     nprocs 12
|  6> end
|  7> 
|  8> %maxcore 8000
|  9> 
| 10> %scf
| 11>     ConvForced true
| 12> end
| 13> 
| 14> *xyz 0 1
| 15> C  -4.271749760  -3.667121641  -1.573818522
| 16> H  -3.984429760  -2.696691641  -1.986208522
| 17> H  -5.229439760  -3.974021641  -2.000858522
| 18> H  -3.508699760  -4.410401641  -1.823458522
| 19> C  -4.373099760  -3.562941641  -0.136548522
| 20> N  -4.441749760  -3.481791641   1.025492478
| 21> *
| 22> 
| 23> 
| 24> $new_job
| 25> 
| 26> # 16mecn.remya.etal.1mecn-orca.engrad-mp2.def2tzvp
| 27> ! MP2 def2-TZVP EnGrad TightSCF FrozenCore
| 28> 
| 29> %pal
| 30>     nprocs 12
| 31> end
| 32> 
| 33> %maxcore 8000
| 34> 
| 35> %scf
| 36>     ConvForced true
| 37> end
| 38> 
| 39> *xyz 0 1
| 40> C   0.571988240  -4.873041641  -1.512468522
| 41> H   1.546120240  -4.656691641  -1.961168522
| 42> H  -0.172089760  -4.156671641  -1.874348522
| 43> H   0.245952240  -5.877821641  -1.790238522
| 44> C   0.674606240  -4.762581641  -0.075538522
| 45> N   0.767969240  -4.661371641   1.083299478
| 46> *
| 47> 
| 48> 
| 49> $new_job
| 50> 
| 51> # 16mecn.remya.etal.1mecn-orca.engrad-mp2.def2tzvp
| 52> ! MP2 def2-TZVP EnGrad TightSCF FrozenCore
| 53> 
| 54> %pal
| 55>     nprocs 12
| 56> end
| 57> 
| 58> %maxcore 8000
| 59> 
| 60> %scf
| 61>     ConvForced true
| 62> end
| 63> 
| 64> *xyz 0 1
| 65> C  -2.235409760  -5.791661641   2.024902478
| 66> H  -3.012989760  -5.073281641   2.301677478
| 67> H  -1.255689760  -5.409791641   2.328833478
| 68> H  -2.423289760  -6.737501641   2.538194478
| 69> C  -2.247309760  -5.980371641   0.591423478
| 70> N  -2.249489760  -6.120941641  -0.566358522
| 71> *
| 72> 
| 73> 
| 74> $new_job
| 75> 
| 76> # 16mecn.remya.etal.1mecn-orca.engrad-mp2.def2tzvp
| 77> ! MP2 def2-TZVP EnGrad TightSCF FrozenCore
| 78> 
| 79> %pal
| 80>     nprocs 12
| 81> end
| 82> 
| 83> %maxcore 8000
| 84> 
| 85> %scf
| 86>     ConvForced true
| 87> end
| 88> 
| 89> *xyz 0 1
| 90> C   3.768482240  -3.553701641   1.573175478
| 91> H   4.764974240  -3.218391641   1.876085478
| 92> H   3.566717240  -4.541911641   1.991396478
| 93> H   3.006556240  -2.863151641   1.945378478
| 94> C   3.697552240  -3.602391641   0.131048478
| 95> N   3.646349240  -3.639391641  -1.034038522
| 96> *
| 97> 
| 98> 
| 99> $new_job
|100> 
|101> # 16mecn.remya.etal.1mecn-orca.engrad-mp2.def2tzvp
|102> ! MP2 def2-TZVP EnGrad TightSCF FrozenCore
|103> 
|104> %pal
|105>     nprocs 12
|106> end
|107> 
|108> %maxcore 8000
|109> 
|110> %scf
|111>     ConvForced true
|112> end
|113> 
|114> *xyz 0 1
|115> C  -1.359539760  -2.150531641   1.696637478
|116> H  -2.321429760  -2.476791641   2.103527478
|117> H  -1.155509760  -1.123161641   2.010018478
|118> H  -0.560239760  -2.804051641   2.057794478
|119> C  -1.405509760  -2.205961641   0.254029478
|120> N  -1.448639760  -2.248841641  -0.911748522
|121> *
|122> 
|123> 
|124> $new_job
|125> 
|126> # 16mecn.remya.etal.1mecn-orca.engrad-mp2.def2tzvp
|127> ! MP2 def2-TZVP EnGrad TightSCF FrozenCore
|128> 
|129> %pal
|130>     nprocs 12
|131> end
|132> 
|133> %maxcore 8000
|134> 
|135> %scf
|136>     ConvForced true
|137> end
|138> 
|139> *xyz 0 1
|140> C   1.612991240  -1.048491641  -1.735508522
|141> H   2.408473240  -1.704711641  -2.100048522
|142> H   1.796394240  -0.030431641  -2.089738522
|143> H   0.644011240  -1.404111641  -2.100178522
|144> C   1.609928240  -1.057971641  -0.291438522
|145> N   1.597683240  -1.069111641   0.875749478
|146> *
|147> 
|148> 
|149> $new_job
|150> 
|151> # 16mecn.remya.etal.1mecn-orca.engrad-mp2.def2tzvp
|152> ! MP2 def2-TZVP EnGrad TightSCF FrozenCore
|153> 
|154> %pal
|155>     nprocs 12
|156> end
|157> 
|158> %maxcore 8000
|159> 
|160> %scf
|161>     ConvForced true
|162> end
|163> 
|164> *xyz 0 1
|165> C   4.654876240   0.145018359   1.528686478
|166> H   5.445135240  -0.551721641   1.823739478
|167> H   3.690728240  -0.216331641   1.901085478
|168> H   4.857100240   1.134677359   1.947972478
|169> C   4.606316240   0.230677359   0.086984478
|170> N   4.567844240   0.301640359  -1.077218522
|171> *
|172> 
|173> 
|174> $new_job
|175> 
|176> # 16mecn.remya.etal.1mecn-orca.engrad-mp2.def2tzvp
|177> ! MP2 def2-TZVP EnGrad TightSCF FrozenCore
|178> 
|179> %pal
|180>     nprocs 12
|181> end
|182> 
|183> %maxcore 8000
|184> 
|185> %scf
|186>     ConvForced true
|187> end
|188> 
|189> *xyz 0 1
|190> C   6.477276240  -2.212811641  -1.998258522
|191> H   5.628757240  -2.839501641  -2.287788522
|192> H   7.384166240  -2.573791641  -2.488978522
|193> H   6.268074240  -1.188181641  -2.315768522
|194> C   6.622338240  -2.253091641  -0.560318522
|195> N   6.724013240  -2.285651641   0.600978478
|196> *
|197> 
|198> 
|199> $new_job
|200> 
|201> # 16mecn.remya.etal.1mecn-orca.engrad-mp2.def2tzvp
|202> ! MP2 def2-TZVP EnGrad TightSCF FrozenCore
|203> 
|204> %pal
|205>     nprocs 12
|206> end
|207> 
|208> %maxcore 8000
|209> 
|210> %scf
|211>     ConvForced true
|212> end
|213> 
|214> *xyz 0 1
|215> C   4.272429240   3.665396359  -1.574768522
|216> H   3.983960240   2.694367359  -1.984998522
|217> H   5.230450240   3.970347359  -2.002598522
|218> H   3.510147240   4.408941359  -1.825898522
|219> C   4.373701240   3.564122359  -0.137258522
|220> N   4.442067240   3.485207359   1.024958478
|221> *
|222> 
|223> 
|224> $new_job
|225> 
|226> # 16mecn.remya.etal.1mecn-orca.engrad-mp2.def2tzvp
|227> ! MP2 def2-TZVP EnGrad TightSCF FrozenCore
|228> 
|229> %pal
|230>     nprocs 12
|231> end
|232> 
|233> %maxcore 8000
|234> 
|235> %scf
|236>     ConvForced true
|237> end
|238> 
|239> *xyz 0 1
|240> C  -0.571859760   4.872674359  -1.511078522
|241> H  -1.545889760   4.656852359  -1.960338522
|242> H   0.172183240   4.156414359  -1.873098522
|243> H  -0.245439760   5.877550359  -1.788328522
|244> C  -0.675029760   4.761511359  -0.074298522
|245> N  -0.769059760   4.659650359   1.084463478
|246> *
|247> 
|248> 
|249> $new_job
|250> 
|251> # 16mecn.remya.etal.1mecn-orca.engrad-mp2.def2tzvp
|252> ! MP2 def2-TZVP EnGrad TightSCF FrozenCore
|253> 
|254> %pal
|255>     nprocs 12
|256> end
|257> 
|258> %maxcore 8000
|259> 
|260> %scf
|261>     ConvForced true
|262> end
|263> 
|264> *xyz 0 1
|265> C   2.237366240   5.791592359   2.024150478
|266> H   3.014908240   5.072773359   2.299876478
|267> H   1.257761240   5.410050359   2.328840478
|268> H   2.426141240   6.737147359   2.537612478
|269> C   2.248053240   5.980884359   0.590747478
|270> N   2.249329240   6.121927359  -0.566988522
|271> *
|272> 
|273> 
|274> $new_job
|275> 
|276> # 16mecn.remya.etal.1mecn-orca.engrad-mp2.def2tzvp
|277> ! MP2 def2-TZVP EnGrad TightSCF FrozenCore
|278> 
|279> %pal
|280>     nprocs 12
|281> end
|282> 
|283> %maxcore 8000
|284> 
|285> %scf
|286>     ConvForced true
|287> end
|288> 
|289> *xyz 0 1
|290> C  -3.769129760   3.554068359   1.572799478
|291> H  -4.765379760   3.219130359   1.876870478
|292> H  -3.566539760   4.542296359   1.990653478
|293> H  -3.007039760   2.863347359   1.944311478
|294> C  -3.699719760   3.602526359   0.130588478
|295> N  -3.649619760   3.639515359  -1.034538522
|296> *
|297> 
|298> 
|299> $new_job
|300> 
|301> # 16mecn.remya.etal.1mecn-orca.engrad-mp2.def2tzvp
|302> ! MP2 def2-TZVP EnGrad TightSCF FrozenCore
|303> 
|304> %pal
|305>     nprocs 12
|306> end
|307> 
|308> %maxcore 8000
|309> 
|310> %scf
|311>     ConvForced true
|312> end
|313> 
|314> *xyz 0 1
|315> C   1.361684240   2.150848359   1.697414478
|316> H   2.323475240   2.477255359   2.104440478
|317> H   1.156867240   1.123981359   2.012034478
|318> H   0.562529240   2.805297359   2.057245478
|319> C   1.408370240   2.204362359   0.254718478
|320> N   1.451772240   2.245741359  -0.911128522
|321> *
|322> 
|323> 
|324> $new_job
|325> 
|326> # 16mecn.remya.etal.1mecn-orca.engrad-mp2.def2tzvp
|327> ! MP2 def2-TZVP EnGrad TightSCF FrozenCore
|328> 
|329> %pal
|330>     nprocs 12
|331> end
|332> 
|333> %maxcore 8000
|334> 
|335> %scf
|336>     ConvForced true
|337> end
|338> 
|339> *xyz 0 1
|340> C  -1.610389760   1.048987359  -1.734348522
|341> H  -2.406389760   1.704151359  -2.099708522
|342> H  -1.791359760   0.030856359  -2.089818522
|343> H  -0.641319760   1.406572359  -2.096978522
|344> C  -1.609869760   1.057261359  -0.290258522
|345> N  -1.599659760   1.067632359   0.876980478
|346> *
|347> 
|348> 
|349> $new_job
|350> 
|351> # 16mecn.remya.etal.1mecn-orca.engrad-mp2.def2tzvp
|352> ! MP2 def2-TZVP EnGrad TightSCF FrozenCore
|353> 
|354> %pal
|355>     nprocs 12
|356> end
|357> 
|358> %maxcore 8000
|359> 
|360> %scf
|361>     ConvForced true
|362> end
|363> 
|364> *xyz 0 1
|365> C  -4.657049760  -0.143211641   1.528984478
|366> H  -5.447459760   0.553172359   1.824422478
|367> H  -3.692889760   0.218627359   1.900806478
|368> H  -4.858479760  -1.132941641   1.948487478
|369> C  -4.609159760  -0.229081641   0.087265478
|370> N  -4.570989760  -0.300491641  -1.076898522
|371> *
|372> 
|373> 
|374> $new_job
|375> 
|376> # 16mecn.remya.etal.1mecn-orca.engrad-mp2.def2tzvp
|377> ! MP2 def2-TZVP EnGrad TightSCF FrozenCore
|378> 
|379> %pal
|380>     nprocs 12
|381> end
|382> 
|383> %maxcore 8000
|384> 
|385> %scf
|386>     ConvForced true
|387> end
|388> 
|389> *xyz 0 1
|390> C  -6.476379760   2.213435359  -1.999318522
|391> H  -5.628549760   2.841265359  -2.288478522
|392> H  -7.383669760   2.573545359  -2.489948522
|393> H  -6.265929760   1.189153359  -2.317198522
|394> C  -6.621729760   2.252879359  -0.561358522
|395> N  -6.723669760   2.284770359   0.599930478
|396> *
|397> 
|398>                          ****END OF INPUT****
================================================================================


                 $$$$$$$$$$$$$$$$$$$$$$$$$$$$$$$$$$$$$$$$$$$$$$ 
                 $ THERE ARE 16 JOBS TO BE PROCESSED THIS RUN $
                 $$$$$$$$$$$$$$$$$$$$$$$$$$$$$$$$$$$$$$$$$$$$$$ 




                 $$$$$$$$$$$$$$$$  JOB NUMBER  1 $$$$$$$$$$$$$$


                     *******************************
                     * Energy+Gradient Calculation *
                     *******************************

---------------------------------
CARTESIAN COORDINATES (ANGSTROEM)
---------------------------------
  C     -4.271750   -3.667122   -1.573819
  H     -3.984430   -2.696692   -1.986209
  H     -5.229440   -3.974022   -2.000859
  H     -3.508700   -4.410402   -1.823459
  C     -4.373100   -3.562942   -0.136549
  N     -4.441750   -3.481792    1.025492

----------------------------
CARTESIAN COORDINATES (A.U.)
----------------------------
  NO LB      ZA    FRAG     MASS         X           Y           Z
   0 C     6.0000    0    12.011   -8.072437   -6.929856   -2.974086
   1 H     1.0000    0     1.008   -7.529481   -5.096009   -3.753390
   2 H     1.0000    0     1.008   -9.882209   -7.509813   -3.781075
   3 H     1.0000    0     1.008   -6.630482   -8.334451   -3.445837
   4 C     6.0000    0    12.011   -8.263961   -6.732984   -0.258039
   5 N     7.0000    0    14.007   -8.393691   -6.579633    1.937900

--------------------------------
INTERNAL COORDINATES (ANGSTROEM)
--------------------------------
 C      0   0   0     0.000000000000     0.00000000     0.00000000
 H      1   0   0     1.092864437796     0.00000000     0.00000000
 H      1   2   0     1.092575355616   109.41367703     0.00000000
 H      1   2   3     1.094088931714   109.49912696   119.83184291
 C      1   2   3     1.444600411117   109.25908608   239.09769363
 N      5   1   2     1.166892210395   179.33243894   271.69057446

---------------------------
INTERNAL COORDINATES (A.U.)
---------------------------
 C      0   0   0     0.000000000000     0.00000000     0.00000000
 H      1   0   0     2.065214488937     0.00000000     0.00000000
 H      1   2   0     2.064668202786   109.41367703     0.00000000
 H      1   2   3     2.067528447095   109.49912696   119.83184291
 C      1   2   3     2.729899149962   109.25908608   239.09769363
 N      5   1   2     2.205106705453   179.33243894   271.69057446

---------------------
BASIS SET INFORMATION
---------------------
There are 3 groups of distinct atoms

 Group   1 Type C   : 11s6p2d1f contracted to 5s3p2d1f pattern {62111/411/11/1}
 Group   2 Type H   : 5s1p contracted to 3s1p pattern {311/1}
 Group   3 Type N   : 11s6p2d1f contracted to 5s3p2d1f pattern {62111/411/11/1}

Atom   0C    basis set group =>   1
Atom   1H    basis set group =>   2
Atom   2H    basis set group =>   2
Atom   3H    basis set group =>   2
Atom   4C    basis set group =>   1
Atom   5N    basis set group =>   3


           ************************************************************
           *        Program running with 12 parallel MPI-processes    *
           *              working on a common directory               *
           ************************************************************
------------------------------------------------------------------------------
                           ORCA GTO INTEGRAL CALCULATION
------------------------------------------------------------------------------

                         BASIS SET STATISTICS AND STARTUP INFO

 # of primitive gaussian shells          ...   78
 # of primitive gaussian functions       ...  162
 # of contracted shells                  ...   45
 # of contracted basis functions         ...  111
 Highest angular momentum                ...    3
 Maximum contraction depth               ...    6
 Integral package used                   ... LIBINT
 Integral threshhold            Thresh   ...  2.500e-11
 Primitive cut-off              TCut     ...  2.500e-12


------------------------------ INTEGRAL EVALUATION ----------------------------


 * One electron integrals 
 Pre-screening matrix                    ... done
 Shell pair data                         ... done (   0.000 sec)



           ************************************************************
           *        Program running with 12 parallel MPI-processes    *
           *              working on a common directory               *
           ************************************************************
-------------------------------------------------------------------------------
                                 ORCA SCF
-------------------------------------------------------------------------------

------------
SCF SETTINGS
------------
Hamiltonian:
 Ab initio Hamiltonian  Method          .... Hartree-Fock(GTOs)


General Settings:
 Integral files         IntName         .... 16mecn.remya.etal.1mecn-orca.engrad-mp2.def2tzvp
 Hartree-Fock type      HFTyp           .... RHF
 Total Charge           Charge          ....    0
 Multiplicity           Mult            ....    1
 Number of Electrons    NEL             ....   22
 Basis Dimension        Dim             ....  111
 Nuclear Repulsion      ENuc            ....     58.4493978660 Eh

Convergence Acceleration:
 DIIS                   CNVDIIS         .... on
   Start iteration      DIISMaxIt       ....    12
   Startup error        DIISStart       ....  0.200000
   # of expansion vecs  DIISMaxEq       ....     5
   Bias factor          DIISBfac        ....   1.050
   Max. coefficient     DIISMaxC        ....  10.000
 Newton-Raphson         CNVNR           .... off
 SOSCF                  CNVSOSCF        .... on
   Start iteration      SOSCFMaxIt      ....   150
   Startup grad/error   SOSCFStart      ....  0.003300
 Level Shifting         CNVShift        .... on
   Level shift para.    LevelShift      ....    0.2500
   Turn off err/grad.   ShiftErr        ....    0.0010
 Zerner damping         CNVZerner       .... off
 Static damping         CNVDamp         .... on
   Fraction old density DampFac         ....    0.7000
   Max. Damping (<1)    DampMax         ....    0.9800
   Min. Damping (>=0)   DampMin         ....    0.0000
   Turn off err/grad.   DampErr         ....    0.1000
 Fernandez-Rico         CNVRico         .... off

SCF Procedure:
 Maximum # iterations   MaxIter         ....   125
 SCF integral mode      SCFMode         .... Direct
   Integral package                     .... LIBINT
 Reset frequency        DirectResetFreq ....    20
 Integral Threshold     Thresh          ....  2.500e-11 Eh
 Primitive CutOff       TCut            ....  2.500e-12 Eh

Convergence Tolerance:
 Convergence Check Mode ConvCheckMode   .... Total+1el-Energy
 Convergence forced     ConvForced      .... 1
 Energy Change          TolE            ....  1.000e-08 Eh
 1-El. energy change                    ....  1.000e-05 Eh
 Orbital Gradient       TolG            ....  1.000e-05
 Orbital Rotation angle TolX            ....  1.000e-05
 DIIS Error             TolErr          ....  5.000e-07


Diagonalization of the overlap matrix:
Smallest eigenvalue                        ... 1.572e-04
Time for diagonalization                   ...    0.103 sec
Threshold for overlap eigenvalues          ... 1.000e-08
Number of eigenvalues below threshold      ... 0
Time for construction of square roots      ...    0.027 sec
Total time needed                          ...    0.130 sec

-------------------
DFT GRID GENERATION
-------------------

General Integration Accuracy     IntAcc      ...  4.340
Radial Grid Type                 RadialGrid  ... Gauss-Chebyshev
Angular Grid (max. acc.)         AngularGrid ... Lebedev-110
Angular grid pruning method      GridPruning ... 3 (G Style)
Weight generation scheme         WeightScheme... Becke
Basis function cutoff            BFCut       ...    1.0000e-11
Integration weight cutoff        WCut        ...    1.0000e-14
Grids for H and He will be reduced by one unit

# of grid points (after initial pruning)     ...   7396 (   0.0 sec)
# of grid points (after weights+screening)   ...   7177 (   0.0 sec)
nearest neighbour list constructed           ...    0.0 sec
Grid point re-assignment to atoms done       ...    0.0 sec
Grid point division into batches done        ...    0.0 sec
Reduced shell lists constructed in    0.0 sec

Total number of grid points                  ...     7177
Total number of batches                      ...      116
Average number of points per batch           ...       61
Average number of grid points per atom       ...     1196
Average number of shells per batch           ...    37.82 (84.04%)
Average number of basis functions per batch  ...    96.18 (86.65%)
Average number of large shells per batch     ...    35.73 (94.47%)
Average number of large basis fcns per batch ...    89.00 (92.53%)
Maximum spatial batch extension              ...   2.09,  2.09,  1.84 au
Average spatial batch extension              ...   0.13,  0.13,  0.12 au

Time for grid setup =    0.094 sec

------------------------------
INITIAL GUESS: MODEL POTENTIAL
------------------------------
Loading Hartree-Fock densities                     ... done
Calculating cut-offs                               ... done
Setting up the integral package                    ... done
Initializing the effective Hamiltonian             ... done
Starting the Coulomb interaction                   ... done (   0.0 sec)
Reading the grid                                   ... done
Mapping shells                                     ... done
Starting the XC term evaluation                    ... done (   0.0 sec)
Transforming the Hamiltonian                       ... done (   0.0 sec)
Diagonalizing the Hamiltonian                      ... done (   0.0 sec)
Back transforming the eigenvectors                 ... done (   0.0 sec)
Now organizing SCF variables                       ... done
                      ------------------
                      INITIAL GUESS DONE (   0.3 sec)
                      ------------------
--------------
SCF ITERATIONS
--------------
ITER       Energy         Delta-E        Max-DP      RMS-DP      [F,P]     Damp
               ***  Starting incremental Fock matrix formation  ***
  0   -131.8068059962   0.000000000000 0.03779592  0.00149467  0.2806561 0.7000
  1   -131.8670816491  -0.060275652877 0.02706339  0.00118629  0.1878837 0.7000
                               ***Turning on DIIS***
  2   -131.9022145690  -0.035132919828 0.01612081  0.00076816  0.1421267 0.7000
  3   -132.2185948094  -0.316380240440 0.01007254  0.00048649  0.1056105 0.7000
  4   -132.2029543917   0.015640417664 0.02548884  0.00118627  0.0744359 0.0000
  5   -131.9841169035   0.218837488268 0.00623951  0.00021654  0.0060700 0.0000
                      *** Initiating the SOSCF procedure ***
                           *** Shutting down DIIS ***
                      *** Re-Reading the Fockian *** 
                      *** Removing any level shift *** 
ITER      Energy       Delta-E        Grad      Rot      Max-DP    RMS-DP
  6   -131.97799728   0.0061196250  0.001293  0.001293  0.004298  0.000136
               *** Restarting incremental Fock matrix formation ***
  7   -131.97448006   0.0035172160  0.000433  0.000635  0.003014  0.000096
  8   -131.97448633  -0.0000062692  0.000327  0.000527  0.002497  0.000080
  9   -131.97448766  -0.0000013279  0.000129  0.000161  0.000772  0.000024
 10   -131.97448790  -0.0000002435  0.000012  0.000011  0.000066  0.000002
 11   -131.97448791  -0.0000000029  0.000005  0.000009  0.000018  0.000001
                 **** Energy Check signals convergence ****
              ***Rediagonalizing the Fockian in SOSCF/NRSCF***

               *****************************************************
               *                     SUCCESS                       *
               *           SCF CONVERGED AFTER  12 CYCLES          *
               *****************************************************


----------------
TOTAL SCF ENERGY
----------------

Total Energy       :         -131.97448791 Eh           -3591.20839 eV

Components:
Nuclear Repulsion  :           58.44939787 Eh            1590.48897 eV
Electronic Energy  :         -190.42388577 Eh           -5181.69736 eV
One Electron Energy:         -293.17652564 Eh           -7977.73884 eV
Two Electron Energy:          102.75263986 Eh            2796.04148 eV

Virial components:
Potential Energy   :         -263.68301025 Eh           -7175.17949 eV
Kinetic Energy     :          131.70852234 Eh            3583.97110 eV
Virial Ratio       :            2.00201935


---------------
SCF CONVERGENCE
---------------

  Last Energy change         ...   -5.7435e-10  Tolerance :   1.0000e-08
  Last MAX-Density change    ...    8.1585e-06  Tolerance :   1.0000e-07
  Last RMS-Density change    ...    2.3596e-07  Tolerance :   5.0000e-09
  Last Orbital Gradient      ...    1.1713e-06  Tolerance :   1.0000e-05
  Last Orbital Rotation      ...    2.3684e-06  Tolerance :   1.0000e-05

             **** THE GBW FILE WAS UPDATED (16mecn.remya.etal.1mecn-orca.engrad-mp2.def2tzvp.gbw) ****
             **** DENSITY FILE WAS UPDATED (16mecn.remya.etal.1mecn-orca.engrad-mp2.def2tzvp.scfp) ****
             **** ENERGY FILE WAS UPDATED (16mecn.remya.etal.1mecn-orca.engrad-mp2.def2tzvp.en.tmp) ****
             **** THE GBW FILE WAS UPDATED (16mecn.remya.etal.1mecn-orca.engrad-mp2.def2tzvp.gbw) ****
             **** DENSITY FILE WAS UPDATED (16mecn.remya.etal.1mecn-orca.engrad-mp2.def2tzvp.scfp) ****
----------------
ORBITAL ENERGIES
----------------

  NO   OCC          E(Eh)            E(eV) 
   0   2.0000     -15.573434      -423.7747 
   1   2.0000     -11.285383      -307.0909 
   2   2.0000     -11.280351      -306.9540 
   3   2.0000      -1.214715       -33.0541 
   4   2.0000      -1.044586       -28.4246 
   5   2.0000      -0.700540       -19.0627 
   6   2.0000      -0.632736       -17.2176 
   7   2.0000      -0.632239       -17.2041 
   8   2.0000      -0.556086       -15.1319 
   9   2.0000      -0.457866       -12.4592 
  10   2.0000      -0.457690       -12.4544 
  11   0.0000       0.118718         3.2305 
  12   0.0000       0.170824         4.6483 
  13   0.0000       0.171268         4.6604 
  14   0.0000       0.202195         5.5020 
  15   0.0000       0.224254         6.1023 
  16   0.0000       0.224705         6.1145 
  17   0.0000       0.263326         7.1655 
  18   0.0000       0.319479         8.6935 
  19   0.0000       0.322219         8.7680 
  20   0.0000       0.381282        10.3752 
  21   0.0000       0.381413        10.3788 
  22   0.0000       0.408310        11.1107 
  23   0.0000       0.496171        13.5015 
  24   0.0000       0.529429        14.4065 
  25   0.0000       0.588231        16.0066 
  26   0.0000       0.598884        16.2965 
  27   0.0000       0.599600        16.3159 
  28   0.0000       0.659045        17.9335 
  29   0.0000       0.659227        17.9385 
  30   0.0000       0.703053        19.1310 
  31   0.0000       0.807886        21.9837 
  32   0.0000       0.813372        22.1330 
  33   0.0000       0.813825        22.1453 
  34   0.0000       0.917674        24.9712 
  35   0.0000       0.919660        25.0252 
  36   0.0000       1.031399        28.0658 
  37   0.0000       1.122259        30.5382 
  38   0.0000       1.123623        30.5753 
  39   0.0000       1.322391        35.9841 
  40   0.0000       1.419730        38.6328 
  41   0.0000       1.423761        38.7425 
  42   0.0000       1.448836        39.4248 
  43   0.0000       1.469748        39.9939 
  44   0.0000       1.474385        40.1201 
  45   0.0000       1.509423        41.0735 
  46   0.0000       1.698286        46.2127 
  47   0.0000       1.698501        46.2186 
  48   0.0000       1.736465        47.2516 
  49   0.0000       1.745837        47.5066 
  50   0.0000       1.798568        48.9415 
  51   0.0000       1.801934        49.0331 
  52   0.0000       1.934880        52.6508 
  53   0.0000       1.935723        52.6737 
  54   0.0000       1.968838        53.5748 
  55   0.0000       2.225187        60.5504 
  56   0.0000       2.235877        60.8413 
  57   0.0000       2.248938        61.1967 
  58   0.0000       2.340878        63.6985 
  59   0.0000       2.547999        69.3346 
  60   0.0000       2.551324        69.4251 
  61   0.0000       2.576876        70.1204 
  62   0.0000       2.619146        71.2706 
  63   0.0000       2.624250        71.4095 
  64   0.0000       2.703516        73.5664 
  65   0.0000       2.738966        74.5311 
  66   0.0000       2.741804        74.6083 
  67   0.0000       2.911997        79.2395 
  68   0.0000       2.913178        79.2716 
  69   0.0000       2.944589        80.1263 
  70   0.0000       2.957097        80.4667 
  71   0.0000       3.022254        82.2397 
  72   0.0000       3.087744        84.0218 
  73   0.0000       3.093782        84.1861 
  74   0.0000       3.233679        87.9929 
  75   0.0000       3.244574        88.2893 
  76   0.0000       3.245605        88.3174 
  77   0.0000       3.329459        90.5992 
  78   0.0000       3.336597        90.7934 
  79   0.0000       3.440844        93.6301 
  80   0.0000       3.446102        93.7732 
  81   0.0000       3.486053        94.8603 
  82   0.0000       3.634876        98.9100 
  83   0.0000       3.653998        99.4304 
  84   0.0000       3.800517       103.4173 
  85   0.0000       3.804439       103.5241 
  86   0.0000       3.927879       106.8830 
  87   0.0000       3.948168       107.4351 
  88   0.0000       3.953917       107.5915 
  89   0.0000       4.245435       115.5242 
  90   0.0000       4.250256       115.6553 
  91   0.0000       4.341792       118.1462 
  92   0.0000       4.346623       118.2776 
  93   0.0000       4.563852       124.1887 
  94   0.0000       4.747089       129.1748 
  95   0.0000       4.749003       129.2269 
  96   0.0000       4.837422       131.6330 
  97   0.0000       4.960514       134.9824 
  98   0.0000       4.961533       135.0102 
  99   0.0000       5.067414       137.8913 
 100   0.0000       5.067851       137.9032 
 101   0.0000       5.198251       141.4516 
 102   0.0000       5.557134       151.2173 
 103   0.0000       5.558044       151.2421 
 104   0.0000       6.022077       163.8690 
 105   0.0000       6.086857       165.6318 
 106   0.0000       6.087381       165.6461 
 107   0.0000       6.464410       175.9055 
 108   0.0000      23.470703       638.6703 
 109   0.0000      24.381904       663.4653 
 110   0.0000      33.391717       908.6348 

                    ********************************
                    * MULLIKEN POPULATION ANALYSIS *
                    ********************************

-----------------------
MULLIKEN ATOMIC CHARGES
-----------------------
   0 C :   -0.165169
   1 H :    0.155756
   2 H :    0.156019
   3 H :    0.155901
   4 C :   -0.106566
   5 N :   -0.195941
Sum of atomic charges:   -0.0000000

--------------------------------
MULLIKEN REDUCED ORBITAL CHARGES
--------------------------------
  0 C s       :     3.148921  s :     3.148921
      pz      :     0.797147  p :     2.950772
      px      :     1.077330
      py      :     1.076296
      dz2     :     0.017638  d :     0.062002
      dxz     :     0.011552
      dyz     :     0.011400
      dx2y2   :     0.009075
      dxy     :     0.012337
      f0      :     0.001625  f :     0.003473
      f+1     :     0.000249
      f-1     :     0.000242
      f+2     :     0.000078
      f-2     :     0.000079
      f+3     :     0.000559
      f-3     :     0.000642
  1 H s       :     0.821841  s :     0.821841
      pz      :     0.005255  p :     0.022402
      px      :     0.004484
      py      :     0.012663
  2 H s       :     0.821588  s :     0.821588
      pz      :     0.005373  p :     0.022393
      px      :     0.012419
      py      :     0.004601
  3 H s       :     0.821736  s :     0.821736
      pz      :     0.004102  p :     0.022363
      px      :     0.009275
      py      :     0.008985
  4 C s       :     3.233667  s :     3.233667
      pz      :     0.967172  p :     2.741784
      px      :     0.887890
      py      :     0.886723
      dz2     :     0.027055  d :     0.113764
      dxz     :     0.042522
      dyz     :     0.042891
      dx2y2   :     0.000135
      dxy     :     0.001162
      f0      :     0.004228  f :     0.017351
      f+1     :     0.006392
      f-1     :     0.006383
      f+2     :     0.000127
      f-2     :     0.000218
      f+3     :     0.000001
      f-3     :     0.000001
  5 N s       :     3.717078  s :     3.717078
      pz      :     1.284573  p :     3.420819
      px      :     1.067210
      py      :     1.069036
      dz2     :     0.011916  d :     0.055078
      dxz     :     0.021431
      dyz     :     0.021374
      dx2y2   :     0.000187
      dxy     :     0.000170
      f0      :     0.000647  f :     0.002966
      f+1     :     0.001138
      f-1     :     0.001133
      f+2     :     0.000025
      f-2     :     0.000023
      f+3     :     0.000000
      f-3     :     0.000000


                     *******************************
                     * LOEWDIN POPULATION ANALYSIS *
                     *******************************

----------------------
LOEWDIN ATOMIC CHARGES
----------------------
   0 C :   -0.244945
   1 H :    0.144204
   2 H :    0.143221
   3 H :    0.144871
   4 C :   -0.199785
   5 N :    0.012433

-------------------------------
LOEWDIN REDUCED ORBITAL CHARGES
-------------------------------
  0 C s       :     2.814014  s :     2.814014
      pz      :     1.025885  p :     3.143047
      px      :     1.058931
      py      :     1.058232
      dz2     :     0.077222  d :     0.262449
      dxz     :     0.061825
      dyz     :     0.061267
      dx2y2   :     0.024839
      dxy     :     0.037295
      f0      :     0.007264  f :     0.025435
      f+1     :     0.005139
      f-1     :     0.005192
      f+2     :     0.002769
      f-2     :     0.001775
      f+3     :     0.001538
      f-3     :     0.001757
  1 H s       :     0.794989  s :     0.794989
      pz      :     0.013497  p :     0.060807
      px      :     0.014037
      py      :     0.033273
  2 H s       :     0.795898  s :     0.795898
      pz      :     0.013734  p :     0.060880
      px      :     0.032827
      py      :     0.014319
  3 H s       :     0.794517  s :     0.794517
      pz      :     0.011274  p :     0.060612
      px      :     0.025015
      py      :     0.024323
  4 C s       :     2.838755  s :     2.838755
      pz      :     1.189249  p :     2.852963
      px      :     0.832067
      py      :     0.831647
      dz2     :     0.154290  d :     0.449295
      dxz     :     0.145407
      dyz     :     0.146294
      dx2y2   :     0.000583
      dxy     :     0.002721
      f0      :     0.022818  f :     0.058771
      f+1     :     0.017492
      f-1     :     0.017573
      f+2     :     0.000316
      f-2     :     0.000568
      f+3     :     0.000003
      f-3     :     0.000003
  5 N s       :     3.314569  s :     3.314569
      pz      :     1.491443  p :     3.547221
      px      :     1.026935
      py      :     1.028843
      dz2     :     0.045598  d :     0.111416
      dxz     :     0.032638
      dyz     :     0.032633
      dx2y2   :     0.000283
      dxy     :     0.000263
      f0      :     0.006131  f :     0.014361
      f+1     :     0.004026
      f-1     :     0.004037
      f+2     :     0.000086
      f-2     :     0.000081
      f+3     :     0.000000
      f-3     :     0.000000


                      *****************************
                      * MAYER POPULATION ANALYSIS *
                      *****************************

  NA   - Mulliken gross atomic population
  ZA   - Total nuclear charge
  QA   - Mulliken gross atomic charge
  VA   - Mayer's total valence
  BVA  - Mayer's bonded valence
  FA   - Mayer's free valence

  ATOM       NA         ZA         QA         VA         BVA        FA
  0 C      6.1652     6.0000    -0.1652     3.8073     3.8073     0.0000
  1 H      0.8442     1.0000     0.1558     0.9619     0.9619     0.0000
  2 H      0.8440     1.0000     0.1560     0.9619     0.9619     0.0000
  3 H      0.8441     1.0000     0.1559     0.9618     0.9618     0.0000
  4 C      6.1066     6.0000    -0.1066     3.9208     3.9208    -0.0000
  5 N      7.1959     7.0000    -0.1959     3.0371     3.0371    -0.0000

  Mayer bond orders larger than 0.100000
B(  0-C ,  1-H ) :   0.9631 B(  0-C ,  2-H ) :   0.9630 B(  0-C ,  3-H ) :   0.9633 
B(  0-C ,  4-C ) :   0.9286 B(  4-C ,  5-N ) :   3.0115 

-------
TIMINGS
-------

Total SCF time: 0 days 0 hours 0 min 7 sec 

Total time                  ....       7.223 sec
Sum of individual times     ....       6.403 sec  ( 88.6%)

Fock matrix formation       ....       5.235 sec  ( 72.5%)
Diagonalization             ....       0.204 sec  (  2.8%)
Density matrix formation    ....       0.234 sec  (  3.2%)
Population analysis         ....       0.053 sec  (  0.7%)
Initial guess               ....       0.196 sec  (  2.7%)
Orbital Transformation      ....       0.000 sec  (  0.0%)
Orbital Orthonormalization  ....       0.000 sec  (  0.0%)
DIIS solution               ....       0.172 sec  (  2.4%)
SOSCF solution              ....       0.216 sec  (  3.0%)


           ************************************************************
           *        Program running with 12 parallel MPI-processes    *
           *              working on a common directory               *
           ************************************************************

------------------------------------------------------------------------------
                                ORCA  MP2 
------------------------------------------------------------------------------

Freezing NCore=6 chemical core electrons
MP2 will be done in the AO integral direct mode
The Q1-step will be done using symmetric double matrices
Dimension of the basis                    ...  111
Memory devoted for MP2                    ... 8000 MB   
Memory needed for all in one shot         ...    6 MB
Number of MOs that can be treated together... 1518      
MP2 density construction                  ... relaxed
The MP2 gradient is requested => amplitudes will be stored on disk
Total number of MOs              ...    8
Number of MOs treated per batch  ...    1 
Number of batches necessary      ...    1 
OPERATORS   0/  0 PASS   0
-----------------------------------------------
 MP2 CORRELATION ENERGY   :     -0.508617244 Eh
-----------------------------------------------


---------------------
MP2 DENSITY FORMATION
---------------------

Completing the external part of the density      ... done
Storing the unrelaxed density                    ... done

Calculating G(D)                                 ... done
Completing the Lagrangian                        ... done
Solving the Z-vector equations                   ... 

------------------------------------------------------------------------------
                           ORCA CP-SCF CALCULATION
------------------------------------------------------------------------------

Input orbitals are from        ... 16mecn.remya.etal.1mecn-orca.engrad-mp2.def2tzvp.gbw
Input Perturbation             ... 16mecn.remya.etal.1mecn-orca.engrad-mp2.def2tzvp.pin.tmp
Wavefunction output            ... 16mecn.remya.etal.1mecn-orca.engrad-mp2.def2tzvp.pout.tmp
Perturbation mode              ... Real perturbation (singlet)
Solver                         ... POPLE
Max. number of iterations      ... 128
Convergence tolerance          ... 1.000e-08
Integral handling              ... Direct
Number of perturbations        ... 1
Number of operators            ... 1
Orbital ranges used for CP-SCF:
 Operator 0:  Orbitals   0... 10  to  11...110
Variables per vector in CP-SCF ... 1100
Number of vectors sought       ... 1
     CP-SCF ITERATION   0: 
     CP-SCF ITERATION   1:      0.000454330267
     CP-SCF ITERATION   2:      0.000092163974
     CP-SCF ITERATION   3:      0.000001954743
     CP-SCF ITERATION   4:      0.000000126711
     CP-SCF ITERATION   5:      0.000000016960
     CP-SCF ITERATION   6:      0.000000002559
                                                 ... done
Finalizing the relaxed density                   ... done
Transforming P to the AO basis                   ... done
Storing the relaxed density                      ... done

------------------------------------
ENERGY WEIGHTED DENSITY FINALIZATION
------------------------------------

Gathering the parts of the W-matrix              ...                                                      done
Forming the Z-density                            ... done
Transforming Z to the AO basis                   ... done
Calculating G(Z)                                 ... done
Finalizing the W-matrix                          ...                                                      done
Transforming W to the AO basis and storing       ... done

                *********************************************
                * UNRELAXED MP2 DENSITY POPULATION ANALYSIS *
                *********************************************

------------------------------------------------------------------------------
                           ORCA POPULATION ANALYSIS
------------------------------------------------------------------------------
Input electron density              ... 16mecn.remya.etal.1mecn-orca.engrad-mp2.def2tzvp.pmp2ur
BaseName (.gbw .S,...)              ... 16mecn.remya.etal.1mecn-orca.engrad-mp2.def2tzvp

                    ********************************
                    * MULLIKEN POPULATION ANALYSIS *
                    ********************************

-----------------------
MULLIKEN ATOMIC CHARGES
-----------------------
   0 C :   -0.178405
   1 H :    0.158330
   2 H :    0.158593
   3 H :    0.158470
   4 C :   -0.115292
   5 N :   -0.181697
Sum of atomic charges:    0.0000000

--------------------------------
MULLIKEN REDUCED ORBITAL CHARGES
--------------------------------
  0 C s       :     3.147298  s :     3.147298
      pz      :     0.795890  p :     2.936247
      px      :     1.070702
      py      :     1.069656
      dz2     :     0.020234  d :     0.087523
      dxz     :     0.017556
      dyz     :     0.017422
      dx2y2   :     0.014634
      dxy     :     0.017677
      f0      :     0.002037  f :     0.007336
      f+1     :     0.000907
      f-1     :     0.000900
      f+2     :     0.000615
      f-2     :     0.000628
      f+3     :     0.001087
      f-3     :     0.001162
  1 H s       :     0.816450  s :     0.816450
      pz      :     0.006237  p :     0.025220
      px      :     0.005508
      py      :     0.013475
  2 H s       :     0.816200  s :     0.816200
      pz      :     0.006350  p :     0.025207
      px      :     0.013237
      py      :     0.005619
  3 H s       :     0.816349  s :     0.816349
      pz      :     0.005120  p :     0.025180
      px      :     0.010172
      py      :     0.009889
  4 C s       :     3.233121  s :     3.233121
      pz      :     0.958408  p :     2.732432
      px      :     0.887547
      py      :     0.886477
      dz2     :     0.029529  d :     0.129421
      dxz     :     0.044652
      dyz     :     0.045013
      dx2y2   :     0.004609
      dxy     :     0.005618
      f0      :     0.004691  f :     0.020318
      f+1     :     0.006836
      f-1     :     0.006827
      f+2     :     0.000677
      f-2     :     0.000767
      f+3     :     0.000260
      f-3     :     0.000260
  5 N s       :     3.704323  s :     3.704323
      pz      :     1.272334  p :     3.394709
      px      :     1.060320
      py      :     1.062056
      dz2     :     0.016094  d :     0.077000
      dxz     :     0.025446
      dyz     :     0.025394
      dx2y2   :     0.005041
      dxy     :     0.005026
      f0      :     0.001074  f :     0.005666
      f+1     :     0.001582
      f-1     :     0.001577
      f+2     :     0.000438
      f-2     :     0.000437
      f+3     :     0.000278
      f-3     :     0.000278


                     *******************************
                     * LOEWDIN POPULATION ANALYSIS *
                     *******************************

----------------------
LOEWDIN ATOMIC CHARGES
----------------------
   0 C :   -0.253032
   1 H :    0.145870
   2 H :    0.144905
   3 H :    0.146529
   4 C :   -0.204943
   5 N :    0.020671

-------------------------------
LOEWDIN REDUCED ORBITAL CHARGES
-------------------------------
  0 C s       :     2.812204  s :     2.812204
      pz      :     1.017388  p :     3.118611
      px      :     1.050959
      py      :     1.050263
      dz2     :     0.082429  d :     0.290761
      dxz     :     0.067663
      dyz     :     0.067114
      dx2y2   :     0.030547
      dxy     :     0.043007
      f0      :     0.008379  f :     0.031456
      f+1     :     0.006193
      f-1     :     0.006247
      f+2     :     0.003456
      f-2     :     0.002453
      f+3     :     0.002248
      f-3     :     0.002480
  1 H s       :     0.788581  s :     0.788581
      pz      :     0.014941  p :     0.065549
      px      :     0.015298
      py      :     0.035310
  2 H s       :     0.789483  s :     0.789483
      pz      :     0.015186  p :     0.065612
      px      :     0.034838
      py      :     0.015588
  3 H s       :     0.788116  s :     0.788116
      pz      :     0.012610  p :     0.065355
      px      :     0.026732
      py      :     0.026013
  4 C s       :     2.835473  s :     2.835473
      pz      :     1.176804  p :     2.834256
      px      :     0.828904
      py      :     0.828548
      dz2     :     0.161474  d :     0.468732
      dxz     :     0.147101
      dyz     :     0.147959
      dx2y2   :     0.005062
      dxy     :     0.007135
      f0      :     0.024454  f :     0.066483
      f+1     :     0.019577
      f-1     :     0.019656
      f+2     :     0.001005
      f-2     :     0.001265
      f+3     :     0.000264
      f-3     :     0.000264
  5 N s       :     3.306744  s :     3.306744
      pz      :     1.475611  p :     3.512850
      px      :     1.017701
      py      :     1.019538
      dz2     :     0.052419  d :     0.140949
      dxz     :     0.039189
      dyz     :     0.039194
      dx2y2   :     0.005083
      dxy     :     0.005063
      f0      :     0.007196  f :     0.018786
      f+1     :     0.004984
      f-1     :     0.004996
      f+2     :     0.000529
      f-2     :     0.000523
      f+3     :     0.000279
      f-3     :     0.000279


                      *****************************
                      * MAYER POPULATION ANALYSIS *
                      *****************************

  NA   - Mulliken gross atomic population
  ZA   - Total nuclear charge
  QA   - Mulliken gross atomic charge
  VA   - Mayer's total valence
  BVA  - Mayer's bonded valence
  FA   - Mayer's free valence

  ATOM       NA         ZA         QA         VA         BVA        FA
  0 C      6.1784     6.0000    -0.1784     3.9247     3.6420     0.2827
  1 H      0.8417     1.0000     0.1583     0.9694     0.9218     0.0476
  2 H      0.8414     1.0000     0.1586     0.9694     0.9220     0.0475
  3 H      0.8415     1.0000     0.1585     0.9694     0.9217     0.0477
  4 C      6.1153     6.0000    -0.1153     4.0222     3.5839     0.4383
  5 N      7.1817     7.0000    -0.1817     3.2325     2.7467     0.4858

  Mayer bond orders larger than 0.100000
B(  0-C ,  1-H ) :   0.9257 B(  0-C ,  2-H ) :   0.9257 B(  0-C ,  3-H ) :   0.9258 
B(  0-C ,  4-C ) :   0.8772 B(  4-C ,  5-N ) :   2.7280 


                *******************************************
                * RELAXED MP2 DENSITY POPULATION ANALYSIS *
                *******************************************

------------------------------------------------------------------------------
                           ORCA POPULATION ANALYSIS
------------------------------------------------------------------------------
Input electron density              ... 16mecn.remya.etal.1mecn-orca.engrad-mp2.def2tzvp.pmp2re
BaseName (.gbw .S,...)              ... 16mecn.remya.etal.1mecn-orca.engrad-mp2.def2tzvp

                    ********************************
                    * MULLIKEN POPULATION ANALYSIS *
                    ********************************

-----------------------
MULLIKEN ATOMIC CHARGES
-----------------------
   0 C :   -0.279035
   1 H :    0.172050
   2 H :    0.172221
   3 H :    0.172182
   4 C :   -0.145817
   5 N :   -0.091601
Sum of atomic charges:    0.0000000

--------------------------------
MULLIKEN REDUCED ORBITAL CHARGES
--------------------------------
  0 C s       :     3.183387  s :     3.183387
      pz      :     0.842176  p :     3.011323
      px      :     1.085208
      py      :     1.083939
      dz2     :     0.016094  d :     0.077243
      dxz     :     0.017586
      dyz     :     0.017507
      dx2y2   :     0.011854
      dxy     :     0.014201
      f0      :     0.001816  f :     0.007083
      f+1     :     0.000958
      f-1     :     0.000953
      f+2     :     0.000603
      f-2     :     0.000620
      f+3     :     0.001033
      f-3     :     0.001099
  1 H s       :     0.803869  s :     0.803869
      pz      :     0.006211  p :     0.024080
      px      :     0.005602
      py      :     0.012267
  2 H s       :     0.803718  s :     0.803718
      pz      :     0.006290  p :     0.024061
      px      :     0.012075
      py      :     0.005696
  3 H s       :     0.803775  s :     0.803775
      pz      :     0.005286  p :     0.024043
      px      :     0.009497
      py      :     0.009261
  4 C s       :     3.211999  s :     3.211999
      pz      :     0.992942  p :     2.810092
      px      :     0.908495
      py      :     0.908655
      dz2     :     0.024652  d :     0.104752
      dxz     :     0.034881
      dyz     :     0.035206
      dx2y2   :     0.004540
      dxy     :     0.005474
      f0      :     0.004493  f :     0.018975
      f+1     :     0.006280
      f-1     :     0.006270
      f+2     :     0.000666
      f-2     :     0.000746
      f+3     :     0.000260
      f-3     :     0.000260
  5 N s       :     3.645598  s :     3.645598
      pz      :     1.262701  p :     3.372800
      px      :     1.054700
      py      :     1.055399
      dz2     :     0.015021  d :     0.068010
      dxz     :     0.021505
      dyz     :     0.021483
      dx2y2   :     0.005007
      dxy     :     0.004995
      f0      :     0.000954  f :     0.005193
      f+1     :     0.001409
      f-1     :     0.001405
      f+2     :     0.000435
      f-2     :     0.000434
      f+3     :     0.000278
      f-3     :     0.000278


                     *******************************
                     * LOEWDIN POPULATION ANALYSIS *
                     *******************************

----------------------
LOEWDIN ATOMIC CHARGES
----------------------
   0 C :   -0.283803
   1 H :    0.152615
   2 H :    0.151608
   3 H :    0.153293
   4 C :   -0.219946
   5 N :    0.046232

-------------------------------
LOEWDIN REDUCED ORBITAL CHARGES
-------------------------------
  0 C s       :     2.817098  s :     2.817098
      pz      :     1.035343  p :     3.155245
      px      :     1.060331
      py      :     1.059571
      dz2     :     0.075078  d :     0.279789
      dxz     :     0.068982
      dyz     :     0.068534
      dx2y2   :     0.027745
      dxy     :     0.039449
      f0      :     0.007930  f :     0.031671
      f+1     :     0.006581
      f-1     :     0.006644
      f+2     :     0.003452
      f-2     :     0.002441
      f+3     :     0.002199
      f-3     :     0.002424
  1 H s       :     0.781528  s :     0.781528
      pz      :     0.015407  p :     0.065858
      px      :     0.015694
      py      :     0.034756
  2 H s       :     0.782482  s :     0.782482
      pz      :     0.015626  p :     0.065910
      px      :     0.034316
      py      :     0.015968
  3 H s       :     0.781044  s :     0.781044
      pz      :     0.013227  p :     0.065663
      px      :     0.026559
      py      :     0.025876
  4 C s       :     2.840963  s :     2.840963
      pz      :     1.168205  p :     2.859910
      px      :     0.845679
      py      :     0.846026
      dz2     :     0.163379  d :     0.452591
      dxz     :     0.138253
      dyz     :     0.139016
      dx2y2   :     0.005015
      dxy     :     0.006928
      f0      :     0.025376  f :     0.066481
      f+1     :     0.019151
      f-1     :     0.019206
      f+2     :     0.001010
      f-2     :     0.001212
      f+3     :     0.000263
      f-3     :     0.000263
  5 N s       :     3.306884  s :     3.306884
      pz      :     1.462840  p :     3.490913
      px      :     1.013493
      py      :     1.014581
      dz2     :     0.053003  d :     0.136811
      dxz     :     0.036809
      dyz     :     0.036892
      dx2y2   :     0.005061
      dxy     :     0.005047
      f0      :     0.007293  f :     0.019159
      f+1     :     0.005115
      f-1     :     0.005134
      f+2     :     0.000532
      f-2     :     0.000526
      f+3     :     0.000279
      f-3     :     0.000279


                      *****************************
                      * MAYER POPULATION ANALYSIS *
                      *****************************

  NA   - Mulliken gross atomic population
  ZA   - Total nuclear charge
  QA   - Mulliken gross atomic charge
  VA   - Mayer's total valence
  BVA  - Mayer's bonded valence
  FA   - Mayer's free valence

  ATOM       NA         ZA         QA         VA         BVA        FA
  0 C      6.2790     6.0000    -0.2790     3.9291     3.6475     0.2816
  1 H      0.8279     1.0000     0.1721     0.9634     0.9164     0.0470
  2 H      0.8278     1.0000     0.1722     0.9634     0.9166     0.0469
  3 H      0.8278     1.0000     0.1722     0.9633     0.9162     0.0471
  4 C      6.1458     6.0000    -0.1458     4.1460     3.7185     0.4275
  5 N      7.0916     7.0000    -0.0916     3.3465     2.8731     0.4734

  Mayer bond orders larger than 0.100000
B(  0-C ,  1-H ) :   0.9165 B(  0-C ,  2-H ) :   0.9165 B(  0-C ,  3-H ) :   0.9165 
B(  0-C ,  4-C ) :   0.9016 B(  4-C ,  5-N ) :   2.8367 


----------------------------------
MP2 DERIVATIVE INTEGRAL GENERATION
----------------------------------


Input Wavefunction Amplitudes       ... 16mecn.remya.etal.1mecn-orca.engrad-mp2.def2tzvp.mp2tsaa.tmp
Input Correlated Electron Density   ... 16mecn.remya.etal.1mecn-orca.engrad-mp2.def2tzvp.pmp2re
Input Energy Weighted Density       ... 16mecn.remya.etal.1mecn-orca.engrad-mp2.def2tzvp.wmp2.tmp
Input SCF Electron Density          ... 16mecn.remya.etal.1mecn-orca.engrad-mp2.def2tzvp.scfp

One-Electron Terms    ...
                        ... One-Electron Terms done
Prescreening matrices              ... done

Batch handling in the gradient evaluation:
Memory available                      ... 8000.0 MB
Memory per occupied orbital in Q2     ...    0.8 MB
Memory per occupied orbital in Q3     ...    0.0 MB
Total memory requirement per |i>      ...    0.8 MB
Max. Number of orbitals possible      ...  10081
Number of orbitals treated per batch  ...      8
Number of batches to be done          ...      1
Batch   0: i=    3 ...    10

---------------------------------------
MP2 TOTAL ENERGY:     -132.483105150 Eh
---------------------------------------

The final MP2 gradient
  0:  -0.00212612   0.00086340   0.00724043
  1:   0.00052066   0.00290058   0.00099592
  2:  -0.00236498  -0.00074226  -0.00038657
  3:   0.00237204  -0.00254834   0.00156127
  4:   0.00114792  -0.00013325  -0.00617142
  5:   0.00045048  -0.00034014  -0.00323962

-----------------------------------
NORM OF THE MP2 GRADIENT:  0.011767
-----------------------------------

-------------------------   --------------------
FINAL SINGLE POINT ENERGY      -132.483105150107
-------------------------   --------------------


                            ***************************************
                            *     ORCA property calculations      *
                            ***************************************

                                    ---------------------
                                    Active property flags
                                    ---------------------
   (+) Dipole Moment


------------------------------------------------------------------------------
                       ORCA ELECTRIC PROPERTIES CALCULATION
------------------------------------------------------------------------------

Dipole Moment Calculation                       ... on
Quadrupole Moment Calculation                   ... off
Polarizability Calculation                      ... off
GBWName                                         ... 16mecn.remya.etal.1mecn-orca.engrad-mp2.def2tzvp.gbw
Electron density file                           ... 16mecn.remya.etal.1mecn-orca.engrad-mp2.def2tzvp.scfp
The origin for moment calculation is the CENTER OF MASS  = (-8.233781, -6.756463 -0.554041)

-------------
DIPOLE MOMENT
-------------
                                X             Y             Z
Electronic contribution:     -0.21790       0.21408       2.95731
Nuclear contribution   :      0.32679      -0.33255      -4.61886
                        -----------------------------------------
Total Dipole Moment    :      0.10888      -0.11847      -1.66155
                        -----------------------------------------
Magnitude (a.u.)       :      1.66932
Magnitude (Debye)      :      4.24307



--------------------
Rotational spectrum 
--------------------
 
Rotational constants in cm-1:     5.251034     0.308624     0.308596 
Rotational constants in MHz : 157422.047203  9252.324358  9251.470154 

 Dipole components along the rotational axes: 
x,y,z [a.u.] :    -1.669319     0.000326     0.000286 
x,y,z [Debye]:    -4.243072     0.000829     0.000726 

 

                         *** MP2 UNRELAXED DENSITY ***

------------------------------------------------------------------------------
                       ORCA ELECTRIC PROPERTIES CALCULATION
------------------------------------------------------------------------------

Dipole Moment Calculation                       ... on
Quadrupole Moment Calculation                   ... off
Polarizability Calculation                      ... off
GBWName                                         ... 16mecn.remya.etal.1mecn-orca.engrad-mp2.def2tzvp.gbw
Electron density file                           ... 16mecn.remya.etal.1mecn-orca.engrad-mp2.def2tzvp.pmp2ur
The origin for moment calculation is the CENTER OF MASS  = (-8.233781, -6.756463 -0.554041)

-------------
DIPOLE MOMENT
-------------
                                X             Y             Z
Electronic contribution:     -0.21990       0.21653       2.99263
Nuclear contribution   :      0.32679      -0.33255      -4.61886
                        -----------------------------------------
Total Dipole Moment    :      0.10689      -0.11602      -1.62622
                        -----------------------------------------
Magnitude (a.u.)       :      1.63386
Magnitude (Debye)      :      4.15293



--------------------
Rotational spectrum 
--------------------
 
Rotational constants in cm-1:     5.251034     0.308624     0.308596 
Rotational constants in MHz : 157422.047203  9252.324358  9251.470154 

 Dipole components along the rotational axes: 
x,y,z [a.u.] :    -1.633855     0.000145     0.000008 
x,y,z [Debye]:    -4.152930     0.000369     0.000021 

 

                           *** MP2 RELAXED DENSITY ***

------------------------------------------------------------------------------
                       ORCA ELECTRIC PROPERTIES CALCULATION
------------------------------------------------------------------------------

Dipole Moment Calculation                       ... on
Quadrupole Moment Calculation                   ... off
Polarizability Calculation                      ... off
GBWName                                         ... 16mecn.remya.etal.1mecn-orca.engrad-mp2.def2tzvp.gbw
Electron density file                           ... 16mecn.remya.etal.1mecn-orca.engrad-mp2.def2tzvp.pmp2re
The origin for moment calculation is the CENTER OF MASS  = (-8.233781, -6.756463 -0.554041)

-------------
DIPOLE MOMENT
-------------
                                X             Y             Z
Electronic contribution:     -0.22607       0.22374       3.09468
Nuclear contribution   :      0.32679      -0.33255      -4.61886
                        -----------------------------------------
Total Dipole Moment    :      0.10072      -0.10881      -1.52418
                        -----------------------------------------
Magnitude (a.u.)       :      1.53137
Magnitude (Debye)      :      3.89244



--------------------
Rotational spectrum 
--------------------
 
Rotational constants in cm-1:     5.251034     0.308624     0.308596 
Rotational constants in MHz : 157422.047203  9252.324358  9251.470154 

 Dipole components along the rotational axes: 
x,y,z [a.u.] :    -1.531374    -0.000112    -0.000478 
x,y,z [Debye]:    -3.892442    -0.000286    -0.001214 

 

Timings for individual modules:

Sum of individual times         ...       35.013 sec (=   0.584 min)
GTO integral calculation        ...        6.752 sec (=   0.113 min)  19.3 %
SCF iterations                  ...       12.247 sec (=   0.204 min)  35.0 %
MP2 module                      ...       16.015 sec (=   0.267 min)  45.7 %


                 $$$$$$$$$$$$$$$$  JOB NUMBER  2 $$$$$$$$$$$$$$


                     *******************************
                     * Energy+Gradient Calculation *
                     *******************************

---------------------------------
CARTESIAN COORDINATES (ANGSTROEM)
---------------------------------
  C      0.571988   -4.873042   -1.512469
  H      1.546120   -4.656692   -1.961169
  H     -0.172090   -4.156672   -1.874349
  H      0.245952   -5.877822   -1.790239
  C      0.674606   -4.762582   -0.075539
  N      0.767969   -4.661372    1.083299

----------------------------
CARTESIAN COORDINATES (A.U.)
----------------------------
  NO LB      ZA    FRAG     MASS         X           Y           Z
   0 C     6.0000    0    12.011    1.080901   -9.208714   -2.858151
   1 H     1.0000    0     1.008    2.921744   -8.799872   -3.706071
   2 H     1.0000    0     1.008   -0.325203   -7.854971   -3.542005
   3 H     1.0000    0     1.008    0.464782  -11.107473   -3.383061
   4 C     6.0000    0    12.011    1.274821   -8.999975   -0.142747
   5 N     7.0000    0    14.007    1.451252   -8.808716    2.047139

--------------------------------
INTERNAL COORDINATES (ANGSTROEM)
--------------------------------
 C      0   0   0     0.000000000000     0.00000000     0.00000000
 H      1   0   0     1.094107931570     0.00000000     0.00000000
 H      1   2   0     1.094438294918   109.89420241     0.00000000
 H      1   2   3     1.092263015302   110.08259629   119.28140169
 C      1   2   3     1.444818220547   109.23918474   240.34826480
 N      5   1   2     1.166989984581   179.21332292    34.98659045

---------------------------
INTERNAL COORDINATES (A.U.)
---------------------------
 C      0   0   0     0.000000000000     0.00000000     0.00000000
 H      1   0   0     2.067564351618     0.00000000     0.00000000
 H      1   2   0     2.068188647872   109.89420241     0.00000000
 H      1   2   3     2.064077965131   110.08259629   119.28140169
 C      1   2   3     2.730310750133   109.23918474   240.34826480
 N      5   1   2     2.205291471888   179.21332292    34.98659045

---------------------
BASIS SET INFORMATION
---------------------
There are 3 groups of distinct atoms

 Group   1 Type C   : 11s6p2d1f contracted to 5s3p2d1f pattern {62111/411/11/1}
 Group   2 Type H   : 5s1p contracted to 3s1p pattern {311/1}
 Group   3 Type N   : 11s6p2d1f contracted to 5s3p2d1f pattern {62111/411/11/1}

Atom   0C    basis set group =>   1
Atom   1H    basis set group =>   2
Atom   2H    basis set group =>   2
Atom   3H    basis set group =>   2
Atom   4C    basis set group =>   1
Atom   5N    basis set group =>   3


           ************************************************************
           *        Program running with 12 parallel MPI-processes    *
           *              working on a common directory               *
           ************************************************************
------------------------------------------------------------------------------
                           ORCA GTO INTEGRAL CALCULATION
------------------------------------------------------------------------------

                         BASIS SET STATISTICS AND STARTUP INFO

 # of primitive gaussian shells          ...   78
 # of primitive gaussian functions       ...  162
 # of contracted shells                  ...   45
 # of contracted basis functions         ...  111
 Highest angular momentum                ...    3
 Maximum contraction depth               ...    6
 Integral package used                   ... LIBINT
 Integral threshhold            Thresh   ...  2.500e-11
 Primitive cut-off              TCut     ...  2.500e-12


------------------------------ INTEGRAL EVALUATION ----------------------------


 * One electron integrals 
 Pre-screening matrix                    ... done
 Shell pair data                         ... done (   0.000 sec)



           ************************************************************
           *        Program running with 12 parallel MPI-processes    *
           *              working on a common directory               *
           ************************************************************
-------------------------------------------------------------------------------
                                 ORCA SCF
-------------------------------------------------------------------------------

------------
SCF SETTINGS
------------
Hamiltonian:
 Ab initio Hamiltonian  Method          .... Hartree-Fock(GTOs)


General Settings:
 Integral files         IntName         .... 16mecn.remya.etal.1mecn-orca.engrad-mp2.def2tzvp_job2
 Hartree-Fock type      HFTyp           .... RHF
 Total Charge           Charge          ....    0
 Multiplicity           Mult            ....    1
 Number of Electrons    NEL             ....   22
 Basis Dimension        Dim             ....  111
 Nuclear Repulsion      ENuc            ....     58.4403782823 Eh

Convergence Acceleration:
 DIIS                   CNVDIIS         .... on
   Start iteration      DIISMaxIt       ....    12
   Startup error        DIISStart       ....  0.200000
   # of expansion vecs  DIISMaxEq       ....     5
   Bias factor          DIISBfac        ....   1.050
   Max. coefficient     DIISMaxC        ....  10.000
[...]
   5 N :   -0.180447
Sum of atomic charges:   -0.0000000

--------------------------------
MULLIKEN REDUCED ORBITAL CHARGES
--------------------------------
  0 C s       :     3.146764  s :     3.146764
      pz      :     0.796479  p :     2.938273
      px      :     1.069058
      py      :     1.072737
      dz2     :     0.020222  d :     0.087613
      dxz     :     0.018666
      dyz     :     0.016388
      dx2y2   :     0.015714
      dxy     :     0.016623
      f0      :     0.002029  f :     0.007334
      f+1     :     0.000962
      f-1     :     0.000867
      f+2     :     0.000621
      f-2     :     0.000623
      f+3     :     0.000797
      f-3     :     0.001433
  1 H s       :     0.816507  s :     0.816507
      pz      :     0.005345  p :     0.025208
      px      :     0.011477
      py      :     0.008385
  2 H s       :     0.815789  s :     0.815789
      pz      :     0.006924  p :     0.025194
      px      :     0.012338
      py      :     0.005933
  3 H s       :     0.816427  s :     0.816427
      pz      :     0.005523  p :     0.025230
      px      :     0.005191
      py      :     0.014516
  4 C s       :     3.233268  s :     3.233268
      pz      :     0.958151  p :     2.732276
      px      :     0.888248
      py      :     0.885877
      dz2     :     0.029617  d :     0.129366
      dxz     :     0.044665
      dyz     :     0.044826
      dx2y2   :     0.005030
      dxy     :     0.005228
      f0      :     0.004688  f :     0.020306
      f+1     :     0.006800
      f-1     :     0.006845
      f+2     :     0.000716
      f-2     :     0.000737
      f+3     :     0.000260
      f-3     :     0.000260
  5 N s       :     3.703802  s :     3.703802
      pz      :     1.272234  p :     3.393977
      px      :     1.060668
      py      :     1.061074
      dz2     :     0.016061  d :     0.076997
      dxz     :     0.025339
      dyz     :     0.025530
      dx2y2   :     0.005035
      dxy     :     0.005033
      f0      :     0.001074  f :     0.005670
      f+1     :     0.001570
      f-1     :     0.001592
      f+2     :     0.000438
      f-2     :     0.000438
      f+3     :     0.000279
      f-3     :     0.000279


                     *******************************
                     * LOEWDIN POPULATION ANALYSIS *
                     *******************************

----------------------
LOEWDIN ATOMIC CHARGES
----------------------
   0 C :   -0.253289
   1 H :    0.146355
   2 H :    0.144514
   3 H :    0.145607
   4 C :   -0.204418
   5 N :    0.021230

-------------------------------
LOEWDIN REDUCED ORBITAL CHARGES
-------------------------------
  0 C s       :     2.812258  s :     2.812258
      pz      :     1.016651  p :     3.119144
      px      :     1.050379
      py      :     1.052114
      dz2     :     0.082430  d :     0.290537
      dxz     :     0.072139
      dyz     :     0.062523
      dx2y2   :     0.035079
      dxy     :     0.038365
      f0      :     0.008301  f :     0.031350
      f+1     :     0.005896
      f-1     :     0.006504
      f+2     :     0.003061
      f-2     :     0.002858
      f+3     :     0.001364
      f-3     :     0.003365
  1 H s       :     0.788216  s :     0.788216
      pz      :     0.013059  p :     0.065428
      px      :     0.029823
      py      :     0.022547
  2 H s       :     0.789848  s :     0.789848
      pz      :     0.016464  p :     0.065638
      px      :     0.032690
      py      :     0.016483
  3 H s       :     0.788807  s :     0.788807
      pz      :     0.013432  p :     0.065586
      px      :     0.014462
      py      :     0.037692
  4 C s       :     2.835617  s :     2.835617
      pz      :     1.176639  p :     2.834555
      px      :     0.830693
      py      :     0.827223
      dz2     :     0.161396  d :     0.467756
      dxz     :     0.147322
      dyz     :     0.146678
      dx2y2   :     0.005977
      dxy     :     0.006383
      f0      :     0.024462  f :     0.066490
      f+1     :     0.019762
      f-1     :     0.019434
      f+2     :     0.001122
      f-2     :     0.001182
      f+3     :     0.000264
      f-3     :     0.000264
  5 N s       :     3.306344  s :     3.306344
      pz      :     1.475930  p :     3.512513
      px      :     1.019126
      py      :     1.017457
      dz2     :     0.052436  d :     0.141076
      dxz     :     0.039406
      dyz     :     0.039083
      dx2y2   :     0.005077
      dxy     :     0.005074
      f0      :     0.007217  f :     0.018838
      f+1     :     0.005052
      f-1     :     0.004955
      f+2     :     0.000528
      f-2     :     0.000527
      f+3     :     0.000279
      f-3     :     0.000279


                      *****************************
                      * MAYER POPULATION ANALYSIS *
                      *****************************

  NA   - Mulliken gross atomic population
  ZA   - Total nuclear charge
  QA   - Mulliken gross atomic charge
  VA   - Mayer's total valence
  BVA  - Mayer's bonded valence
  FA   - Mayer's free valence

  ATOM       NA         ZA         QA         VA         BVA        FA
  0 C      6.1800     6.0000    -0.1800     3.9258     3.6429     0.2829
  1 H      0.8417     1.0000     0.1583     0.9693     0.9216     0.0477
  2 H      0.8410     1.0000     0.1590     0.9693     0.9220     0.0474
  3 H      0.8417     1.0000     0.1583     0.9694     0.9218     0.0476
  4 C      6.1152     6.0000    -0.1152     4.0233     3.5854     0.4379
  5 N      7.1804     7.0000    -0.1804     3.2322     2.7470     0.4852

  Mayer bond orders larger than 0.100000
B(  0-C ,  1-H ) :   0.9262 B(  0-C ,  2-H ) :   0.9251 B(  0-C ,  3-H ) :   0.9261 
B(  0-C ,  4-C ) :   0.8780 B(  4-C ,  5-N ) :   2.7284 


                *******************************************
                * RELAXED MP2 DENSITY POPULATION ANALYSIS *
                *******************************************

------------------------------------------------------------------------------
                           ORCA POPULATION ANALYSIS
------------------------------------------------------------------------------
Input electron density              ... 16mecn.remya.etal.1mecn-orca.engrad-mp2.def2tzvp_job16.pmp2re
BaseName (.gbw .S,...)              ... 16mecn.remya.etal.1mecn-orca.engrad-mp2.def2tzvp_job16

                    ********************************
                    * MULLIKEN POPULATION ANALYSIS *
                    ********************************

-----------------------
MULLIKEN ATOMIC CHARGES
-----------------------
   0 C :   -0.280623
   1 H :    0.172196
   2 H :    0.172459
   3 H :    0.172197
   4 C :   -0.145830
   5 N :   -0.090399
Sum of atomic charges:   -0.0000000

--------------------------------
MULLIKEN REDUCED ORBITAL CHARGES
--------------------------------
  0 C s       :     3.182893  s :     3.182893
      pz      :     0.842562  p :     3.013346
      px      :     1.083945
      py      :     1.086838
      dz2     :     0.016082  d :     0.077306
      dxz     :     0.018365
      dyz     :     0.016748
      dx2y2   :     0.012698
      dxy     :     0.013412
      f0      :     0.001811  f :     0.007079
      f+1     :     0.001005
      f-1     :     0.000925
      f+2     :     0.000611
      f-2     :     0.000613
      f+3     :     0.000773
      f-3     :     0.001341
  1 H s       :     0.803734  s :     0.803734
      pz      :     0.005470  p :     0.024070
      px      :     0.010579
      py      :     0.008022
  2 H s       :     0.803494  s :     0.803494
      pz      :     0.006759  p :     0.024047
      px      :     0.011327
      py      :     0.005960
  3 H s       :     0.803715  s :     0.803715
      pz      :     0.005611  p :     0.024088
      px      :     0.005337
      py      :     0.013140
  4 C s       :     3.212423  s :     3.212423
      pz      :     0.992800  p :     2.809704
      px      :     0.908843
      py      :     0.908061
      dz2     :     0.024732  d :     0.104739
      dxz     :     0.034948
      dyz     :     0.035015
      dx2y2   :     0.004929
      dxy     :     0.005115
      f0      :     0.004490  f :     0.018965
      f+1     :     0.006251
      f-1     :     0.006282
      f+2     :     0.000702
      f-2     :     0.000720
      f+3     :     0.000260
      f-3     :     0.000260
  5 N s       :     3.645006  s :     3.645006
      pz      :     1.262551  p :     3.372186
      px      :     1.055220
      py      :     1.054415
      dz2     :     0.014988  d :     0.068010
      dxz     :     0.021435
      dyz     :     0.021585
      dx2y2   :     0.005002
      dxy     :     0.005000
      f0      :     0.000954  f :     0.005197
      f+1     :     0.001398
      f-1     :     0.001419
      f+2     :     0.000435
      f-2     :     0.000434
      f+3     :     0.000279
      f-3     :     0.000279


                     *******************************
                     * LOEWDIN POPULATION ANALYSIS *
                     *******************************

----------------------
LOEWDIN ATOMIC CHARGES
----------------------
   0 C :   -0.284041
   1 H :    0.153145
   2 H :    0.151181
   3 H :    0.152362
   4 C :   -0.219339
   5 N :    0.046692

-------------------------------
LOEWDIN REDUCED ORBITAL CHARGES
-------------------------------
  0 C s       :     2.817166  s :     2.817166
      pz      :     1.034508  p :     3.155770
      px      :     1.059777
      py      :     1.061485
      dz2     :     0.075116  d :     0.279547
      dxz     :     0.073020
      dyz     :     0.064299
      dx2y2   :     0.032016
      dxy     :     0.035097
      f0      :     0.007857  f :     0.031558
      f+1     :     0.006248
      f-1     :     0.006924
      f+2     :     0.003055
      f-2     :     0.002850
      f+3     :     0.001343
      f-3     :     0.003282
  1 H s       :     0.781111  s :     0.781111
      pz      :     0.013644  p :     0.065744
      px      :     0.029483
      py      :     0.022616
  2 H s       :     0.782898  s :     0.782898
      pz      :     0.016816  p :     0.065921
      px      :     0.032278
      py      :     0.016828
  3 H s       :     0.781742  s :     0.781742
      pz      :     0.013990  p :     0.065896
      px      :     0.014893
      py      :     0.037013
  4 C s       :     2.841138  s :     2.841138
      pz      :     1.168044  p :     2.860049
      px      :     0.847170
      py      :     0.844835
      dz2     :     0.163292  d :     0.451653
      dxz     :     0.138578
      dyz     :     0.137678
      dx2y2   :     0.005865
      dxy     :     0.006239
      f0      :     0.025381  f :     0.066498
      f+1     :     0.019366
      f-1     :     0.018970
      f+2     :     0.001103
      f-2     :     0.001151
      f+3     :     0.000263
      f-3     :     0.000264
  5 N s       :     3.306472  s :     3.306472
      pz      :     1.463160  p :     3.490693
      px      :     1.015017
      py      :     1.012516
      dz2     :     0.053018  d :     0.136932
      dxz     :     0.037056
      dyz     :     0.036747
      dx2y2   :     0.005057
      dxy     :     0.005054
      f0      :     0.007314  f :     0.019211
      f+1     :     0.005182
      f-1     :     0.005095
      f+2     :     0.000531
      f-2     :     0.000530
      f+3     :     0.000279
      f-3     :     0.000279


                      *****************************
                      * MAYER POPULATION ANALYSIS *
                      *****************************

  NA   - Mulliken gross atomic population
  ZA   - Total nuclear charge
  QA   - Mulliken gross atomic charge
  VA   - Mayer's total valence
  BVA  - Mayer's bonded valence
  FA   - Mayer's free valence

  ATOM       NA         ZA         QA         VA         BVA        FA
  0 C      6.2806     6.0000    -0.2806     3.9300     3.6483     0.2818
  1 H      0.8278     1.0000     0.1722     0.9631     0.9160     0.0471
  2 H      0.8275     1.0000     0.1725     0.9635     0.9168     0.0468
  3 H      0.8278     1.0000     0.1722     0.9632     0.9162     0.0470
  4 C      6.1458     6.0000    -0.1458     4.1472     3.7201     0.4271
  5 N      7.0904     7.0000    -0.0904     3.3461     2.8732     0.4729

  Mayer bond orders larger than 0.100000
B(  0-C ,  1-H ) :   0.9168 B(  0-C ,  2-H ) :   0.9160 B(  0-C ,  3-H ) :   0.9168 
B(  0-C ,  4-C ) :   0.9024 B(  4-C ,  5-N ) :   2.8371 


----------------------------------
MP2 DERIVATIVE INTEGRAL GENERATION
----------------------------------


Input Wavefunction Amplitudes       ... 16mecn.remya.etal.1mecn-orca.engrad-mp2.def2tzvp_job16.mp2tsaa.tmp
Input Correlated Electron Density   ... 16mecn.remya.etal.1mecn-orca.engrad-mp2.def2tzvp_job16.pmp2re
Input Energy Weighted Density       ... 16mecn.remya.etal.1mecn-orca.engrad-mp2.def2tzvp_job16.wmp2.tmp
Input SCF Electron Density          ... 16mecn.remya.etal.1mecn-orca.engrad-mp2.def2tzvp_job16.scfp

One-Electron Terms    ...
                        ... One-Electron Terms done
Prescreening matrices              ... done

Batch handling in the gradient evaluation:
Memory available                      ... 8000.0 MB
Memory per occupied orbital in Q2     ...    0.8 MB
Memory per occupied orbital in Q3     ...    0.0 MB
Total memory requirement per |i>      ...    0.8 MB
Max. Number of orbitals possible      ...  10081
Number of orbitals treated per batch  ...      8
Number of batches to be done          ...      1
Batch   0: i=    3 ...    10

---------------------------------------
MP2 TOTAL ENERGY:     -132.483114152 Eh
---------------------------------------

The final MP2 gradient
  0:  -0.00439548   0.00054130   0.00722896
  1:   0.00309169   0.00085236   0.00103688
  2:  -0.00242089   0.00107757  -0.00081782
  3:   0.00177664  -0.00215547   0.00056370
  4:   0.00121601  -0.00019371  -0.00334334
  5:   0.00073203  -0.00012206  -0.00466840

-----------------------------------
NORM OF THE MP2 GRADIENT:  0.011579
-----------------------------------

-------------------------   --------------------
FINAL SINGLE POINT ENERGY      -132.483114151567
-------------------------   --------------------


                            ***************************************
                            *     ORCA property calculations      *
                            ***************************************

                                    ---------------------
                                    Active property flags
                                    ---------------------
   (+) Dipole Moment


------------------------------------------------------------------------------
                       ORCA ELECTRIC PROPERTIES CALCULATION
------------------------------------------------------------------------------

Dipole Moment Calculation                       ... on
Quadrupole Moment Calculation                   ... off
Polarizability Calculation                      ... off
GBWName                                         ... 16mecn.remya.etal.1mecn-orca.engrad-mp2.def2tzvp_job16.gbw
Electron density file                           ... 16mecn.remya.etal.1mecn-orca.engrad-mp2.def2tzvp_job16.scfp
The origin for moment calculation is the CENTER OF MASS  = (-12.471383,  4.248902 -1.358177)

-------------
DIPOLE MOMENT
-------------
                                X             Y             Z
Electronic contribution:     -0.32533       0.08564       2.96575
Nuclear contribution   :      0.48770      -0.13237      -4.62684
                        -----------------------------------------
Total Dipole Moment    :      0.16237      -0.04672      -1.66109
                        -----------------------------------------
Magnitude (a.u.)       :      1.66966
Magnitude (Debye)      :      4.24393



--------------------
Rotational spectrum 
--------------------
 
Rotational constants in cm-1:     5.266447     0.308388     0.308166 
Rotational constants in MHz : 157884.122066  9245.230037  9238.598009 

 Dipole components along the rotational axes: 
x,y,z [a.u.] :    -1.669654    -0.002656    -0.000152 
x,y,z [Debye]:    -4.243922    -0.006752    -0.000387 

 

                         *** MP2 UNRELAXED DENSITY ***

------------------------------------------------------------------------------
                       ORCA ELECTRIC PROPERTIES CALCULATION
------------------------------------------------------------------------------

Dipole Moment Calculation                       ... on
Quadrupole Moment Calculation                   ... off
Polarizability Calculation                      ... off
GBWName                                         ... 16mecn.remya.etal.1mecn-orca.engrad-mp2.def2tzvp_job16.gbw
Electron density file                           ... 16mecn.remya.etal.1mecn-orca.engrad-mp2.def2tzvp_job16.pmp2ur
The origin for moment calculation is the CENTER OF MASS  = (-12.471383,  4.248902 -1.358177)

-------------
DIPOLE MOMENT
-------------
                                X             Y             Z
Electronic contribution:     -0.32831       0.08661       3.00097
Nuclear contribution   :      0.48770      -0.13237      -4.62684
                        -----------------------------------------
Total Dipole Moment    :      0.15939      -0.04576      -1.62587
                        -----------------------------------------
Magnitude (a.u.)       :      1.63430
Magnitude (Debye)      :      4.15407



--------------------
Rotational spectrum 
--------------------
 
Rotational constants in cm-1:     5.266447     0.308388     0.308166 
Rotational constants in MHz : 157884.122066  9245.230037  9238.598009 

 Dipole components along the rotational axes: 
x,y,z [a.u.] :    -1.634301    -0.003041    -0.000300 
x,y,z [Debye]:    -4.154064    -0.007729    -0.000763 

 

                           *** MP2 RELAXED DENSITY ***

------------------------------------------------------------------------------
                       ORCA ELECTRIC PROPERTIES CALCULATION
------------------------------------------------------------------------------

Dipole Moment Calculation                       ... on
Quadrupole Moment Calculation                   ... off
Polarizability Calculation                      ... off
GBWName                                         ... 16mecn.remya.etal.1mecn-orca.engrad-mp2.def2tzvp_job16.gbw
Electron density file                           ... 16mecn.remya.etal.1mecn-orca.engrad-mp2.def2tzvp_job16.pmp2re
The origin for moment calculation is the CENTER OF MASS  = (-12.471383,  4.248902 -1.358177)

-------------
DIPOLE MOMENT
-------------
                                X             Y             Z
Electronic contribution:     -0.33723       0.08937       3.10257
Nuclear contribution   :      0.48770      -0.13237      -4.62684
                        -----------------------------------------
Total Dipole Moment    :      0.15047      -0.04300      -1.52427
                        -----------------------------------------
Magnitude (a.u.)       :      1.53228
Magnitude (Debye)      :      3.89474



--------------------
Rotational spectrum 
--------------------
 
Rotational constants in cm-1:     5.266447     0.308388     0.308166 
Rotational constants in MHz : 157884.122066  9245.230037  9238.598009 

 Dipole components along the rotational axes: 
x,y,z [a.u.] :    -1.532274    -0.003843    -0.000582 
x,y,z [Debye]:    -3.894731    -0.009768    -0.001479 

 

Timings for individual modules:

Sum of individual times         ...       34.898 sec (=   0.582 min)
GTO integral calculation        ...        5.910 sec (=   0.099 min)  16.9 %
SCF iterations                  ...       15.555 sec (=   0.259 min)  44.6 %
MP2 module                      ...       13.433 sec (=   0.224 min)  38.5 %



                             ****ORCA TERMINATED NORMALLY****
TOTAL RUN TIME: 0 days 0 hours 9 minutes 41 seconds 179 msec
