
                                 *****************
                                 * O   R   C   A *
                                 *****************

           --- An Ab Initio, DFT and Semiempirical electronic structure package ---

                  #######################################################
                  #                        -***-                        #
                  #          Department of theory and spectroscopy      #
                  #               Directorship: Frank Neese             #
                  #        Max Planck Institute fuer Kohlenforschung    #
                  #                Kaiser Wilhelm Platz 1               #
                  #                 D-45470 Muelheim/Ruhr               #
                  #                      Germany                        #
                  #                                                     #
                  #                  All rights reserved                #
                  #                        -***-                        #
                  #######################################################


                         Program Version 4.2.0 -  RELEASE  -


 With contributions from (in alphabetic order):
   Daniel Aravena         : Magnetic Suceptibility
   Michael Atanasov       : Ab Initio Ligand Field Theory (pilot matlab implementation)
   Alexander A. Auer      : GIAO ZORA, VPT2
   Ute Becker             : Parallelization
   Giovanni Bistoni       : ED, misc. LED, open-shell LED, HFLED
   Martin Brehm           : Molecular dynamics
   Dmytro Bykov           : SCF Hessian
   Vijay G. Chilkuri      : MRCI spin determinant printing, contributions to CSF-ICE
   Dipayan Datta          : RHF DLPNO-CCSD density
   Achintya Kumar Dutta   : EOM-CC, STEOM-CC
   Dmitry Ganyushin       : Spin-Orbit,Spin-Spin,Magnetic field MRCI
   Miquel Garcia          : C-PCM Hessian, Gaussian charge scheme
   Yang Guo               : DLPNO-NEVPT2, CIM, IAO-localization
   Andreas Hansen         : Spin unrestricted coupled pair/coupled cluster methods
   Benjamin Helmich-Paris : CASSCF linear response (MC-RPA)
   Lee Huntington         : MR-EOM, pCC
   Robert Izsak           : Overlap fitted RIJCOSX, COSX-SCS-MP3, EOM
   Christian Kollmar      : KDIIS, OOCD, Brueckner-CCSD(T), CCSD density
   Simone Kossmann        : Meta GGA functionals, TD-DFT gradient, OOMP2, MP2 Hessian
   Martin Krupicka        : AUTO-CI
   Lucas Lang             : DCDCAS
   Dagmar Lenk            : GEPOL surface, SMD
   Dimitrios Liakos       : Extrapolation schemes; Compound Job, initial MDCI parallelization
   Dimitrios Manganas     : Further ROCIS development; embedding schemes
   Dimitrios Pantazis     : SARC Basis sets
   Taras Petrenko         : DFT Hessian,TD-DFT gradient, ASA, ECA, R-Raman, ABS, FL, XAS/XES, NRVS
   Peter Pinski           : DLPNO-MP2, DLPNO-MP2 Gradient
   Christoph Reimann      : Effective Core Potentials
   Marius Retegan         : Local ZFS, SOC
   Christoph Riplinger    : Optimizer, TS searches, QM/MM, DLPNO-CCSD(T), (RO)-DLPNO pert. Triples
   Tobias Risthaus        : Range-separated hybrids, TD-DFT gradient, RPA, STAB
   Michael Roemelt        : Original ROCIS implementation
   Masaaki Saitow         : Open-shell DLPNO-CCSD energy and density
   Barbara Sandhoefer     : DKH picture change effects
   Avijit Sen             : IP-ROCIS
   Kantharuban Sivalingam : CASSCF convergence, NEVPT2, FIC-MRCI
   Bernardo de Souza      : ESD, SOC TD-DFT
   Georgi Stoychev        : AutoAux, RI-MP2 NMR
   Willem Van den Heuvel  : Paramagnetic NMR
   Boris Wezisla          : Elementary symmetry handling
   Frank Wennmohs         : Technical directorship


 We gratefully acknowledge several colleagues who have allowed us to
 interface, adapt or use parts of their codes:
   Stefan Grimme, W. Hujo, H. Kruse,             : VdW corrections, initial TS optimization,
                  C. Bannwarth                     DFT functionals, gCP, sTDA/sTD-DF
   Ed Valeev, F. Pavosevic, A. Kumar             : LibInt (2-el integral package), F12 methods
   Garnet Chan, S. Sharma, J. Yang, R. Olivares  : DMRG
   Ulf Ekstrom                                   : XCFun DFT Library
   Mihaly Kallay                                 : mrcc  (arbitrary order and MRCC methods)
   Andreas Klamt, Michael Diedenhofen            : otool_cosmo (COSMO solvation model)
   Jiri Pittner, Ondrej Demel                    : Mk-CCSD
   Frank Weinhold                                : gennbo (NPA and NBO analysis)
   Christopher J. Cramer and Donald G. Truhlar   : smd solvation model
   Lars Goerigk                                  : TD-DFT with DH, B97 family of functionals
   V. Asgeirsson, H. Jonsson                     : NEB implementation
   FAccTs GmbH                                   : IRC, NEB, NEB-TS, Multilevel, MM, QM/MM, CI optimization
   S Lehtola, MJT Oliveira, MAL Marques          : LibXC Library


 Your calculation uses the libint2 library for the computation of 2-el integrals
 For citations please refer to: http://libint.valeyev.net

 Your ORCA version has been built with support for libXC version: 4.2.3
 For citations please refer to: https://tddft.org/programs/libxc/

 This ORCA versions uses:
   CBLAS   interface :  Fast vector & matrix operations
   LAPACKE interface :  Fast linear algebra routines
   SCALAPACK package :  Parallel linear algebra routines


----- Orbital basis set information -----
Your calculation utilizes the basis: def2-TZVP
   F. Weigend and R. Ahlrichs, Phys. Chem. Chem. Phys. 7, 3297 (2005).

================================================================================
                                        WARNINGS
                       Please study these warnings very carefully!
================================================================================


WARNING: The frozen-core approximation for MP2-gradient calculations is turned on by default.

INFO   : the flag for use of LIBINT has been found!

----- Orbital basis set information -----
Your calculation utilizes the basis: def2-TZVP
   F. Weigend and R. Ahlrichs, Phys. Chem. Chem. Phys. 7, 3297 (2005).

================================================================================
                                        WARNINGS
                       Please study these warnings very carefully!
================================================================================


WARNING: The frozen-core approximation for MP2-gradient calculations is turned on by default.

INFO   : the flag for use of LIBINT has been found!

----- Orbital basis set information -----
Your calculation utilizes the basis: def2-TZVP
   F. Weigend and R. Ahlrichs, Phys. Chem. Chem. Phys. 7, 3297 (2005).

================================================================================
                                        WARNINGS
                       Please study these warnings very carefully!
================================================================================


WARNING: The frozen-core approximation for MP2-gradient calculations is turned on by default.

INFO   : the flag for use of LIBINT has been found!

----- Orbital basis set information -----
Your calculation utilizes the basis: def2-TZVP
   F. Weigend and R. Ahlrichs, Phys. Chem. Chem. Phys. 7, 3297 (2005).

================================================================================
                                        WARNINGS
                       Please study these warnings very carefully!
================================================================================


WARNING: The frozen-core approximation for MP2-gradient calculations is turned on by default.

INFO   : the flag for use of LIBINT has been found!

----- Orbital basis set information -----
Your calculation utilizes the basis: def2-TZVP
   F. Weigend and R. Ahlrichs, Phys. Chem. Chem. Phys. 7, 3297 (2005).

================================================================================
                                        WARNINGS
                       Please study these warnings very carefully!
================================================================================


WARNING: The frozen-core approximation for MP2-gradient calculations is turned on by default.

INFO   : the flag for use of LIBINT has been found!

----- Orbital basis set information -----
Your calculation utilizes the basis: def2-TZVP
   F. Weigend and R. Ahlrichs, Phys. Chem. Chem. Phys. 7, 3297 (2005).

================================================================================
                                        WARNINGS
                       Please study these warnings very carefully!
================================================================================


WARNING: The frozen-core approximation for MP2-gradient calculations is turned on by default.

INFO   : the flag for use of LIBINT has been found!

----- Orbital basis set information -----
Your calculation utilizes the basis: def2-TZVP
   F. Weigend and R. Ahlrichs, Phys. Chem. Chem. Phys. 7, 3297 (2005).

================================================================================
                                        WARNINGS
                       Please study these warnings very carefully!
================================================================================


WARNING: The frozen-core approximation for MP2-gradient calculations is turned on by default.

INFO   : the flag for use of LIBINT has been found!

----- Orbital basis set information -----
Your calculation utilizes the basis: def2-TZVP
   F. Weigend and R. Ahlrichs, Phys. Chem. Chem. Phys. 7, 3297 (2005).

================================================================================
                                        WARNINGS
                       Please study these warnings very carefully!
================================================================================


WARNING: The frozen-core approximation for MP2-gradient calculations is turned on by default.

INFO   : the flag for use of LIBINT has been found!

----- Orbital basis set information -----
Your calculation utilizes the basis: def2-TZVP
   F. Weigend and R. Ahlrichs, Phys. Chem. Chem. Phys. 7, 3297 (2005).

================================================================================
                                        WARNINGS
                       Please study these warnings very carefully!
================================================================================


WARNING: The frozen-core approximation for MP2-gradient calculations is turned on by default.

INFO   : the flag for use of LIBINT has been found!

----- Orbital basis set information -----
Your calculation utilizes the basis: def2-TZVP
   F. Weigend and R. Ahlrichs, Phys. Chem. Chem. Phys. 7, 3297 (2005).

================================================================================
                                        WARNINGS
                       Please study these warnings very carefully!
================================================================================


WARNING: The frozen-core approximation for MP2-gradient calculations is turned on by default.

INFO   : the flag for use of LIBINT has been found!

----- Orbital basis set information -----
Your calculation utilizes the basis: def2-TZVP
   F. Weigend and R. Ahlrichs, Phys. Chem. Chem. Phys. 7, 3297 (2005).

================================================================================
                                        WARNINGS
                       Please study these warnings very carefully!
================================================================================


WARNING: The frozen-core approximation for MP2-gradient calculations is turned on by default.

INFO   : the flag for use of LIBINT has been found!

----- Orbital basis set information -----
Your calculation utilizes the basis: def2-TZVP
   F. Weigend and R. Ahlrichs, Phys. Chem. Chem. Phys. 7, 3297 (2005).

================================================================================
                                        WARNINGS
                       Please study these warnings very carefully!
================================================================================


WARNING: The frozen-core approximation for MP2-gradient calculations is turned on by default.

INFO   : the flag for use of LIBINT has been found!

----- Orbital basis set information -----
Your calculation utilizes the basis: def2-TZVP
   F. Weigend and R. Ahlrichs, Phys. Chem. Chem. Phys. 7, 3297 (2005).

================================================================================
                                        WARNINGS
                       Please study these warnings very carefully!
================================================================================


WARNING: The frozen-core approximation for MP2-gradient calculations is turned on by default.

INFO   : the flag for use of LIBINT has been found!

----- Orbital basis set information -----
Your calculation utilizes the basis: def2-TZVP
   F. Weigend and R. Ahlrichs, Phys. Chem. Chem. Phys. 7, 3297 (2005).

================================================================================
                                        WARNINGS
                       Please study these warnings very carefully!
================================================================================


WARNING: The frozen-core approximation for MP2-gradient calculations is turned on by default.

INFO   : the flag for use of LIBINT has been found!

----- Orbital basis set information -----
Your calculation utilizes the basis: def2-TZVP
   F. Weigend and R. Ahlrichs, Phys. Chem. Chem. Phys. 7, 3297 (2005).

================================================================================
                                        WARNINGS
                       Please study these warnings very carefully!
================================================================================


WARNING: The frozen-core approximation for MP2-gradient calculations is turned on by default.

INFO   : the flag for use of LIBINT has been found!

----- Orbital basis set information -----
Your calculation utilizes the basis: def2-TZVP
   F. Weigend and R. Ahlrichs, Phys. Chem. Chem. Phys. 7, 3297 (2005).

================================================================================
                                        WARNINGS
                       Please study these warnings very carefully!
================================================================================


WARNING: The frozen-core approximation for MP2-gradient calculations is turned on by default.

INFO   : the flag for use of LIBINT has been found!

----- Orbital basis set information -----
Your calculation utilizes the basis: def2-TZVP
   F. Weigend and R. Ahlrichs, Phys. Chem. Chem. Phys. 7, 3297 (2005).

================================================================================
                                        WARNINGS
                       Please study these warnings very carefully!
================================================================================


WARNING: The frozen-core approximation for MP2-gradient calculations is turned on by default.

INFO   : the flag for use of LIBINT has been found!

----- Orbital basis set information -----
Your calculation utilizes the basis: def2-TZVP
   F. Weigend and R. Ahlrichs, Phys. Chem. Chem. Phys. 7, 3297 (2005).

================================================================================
                                        WARNINGS
                       Please study these warnings very carefully!
================================================================================


WARNING: The frozen-core approximation for MP2-gradient calculations is turned on by default.

INFO   : the flag for use of LIBINT has been found!

----- Orbital basis set information -----
Your calculation utilizes the basis: def2-TZVP
   F. Weigend and R. Ahlrichs, Phys. Chem. Chem. Phys. 7, 3297 (2005).

================================================================================
                                        WARNINGS
                       Please study these warnings very carefully!
================================================================================


WARNING: The frozen-core approximation for MP2-gradient calculations is turned on by default.

INFO   : the flag for use of LIBINT has been found!

----- Orbital basis set information -----
Your calculation utilizes the basis: def2-TZVP
   F. Weigend and R. Ahlrichs, Phys. Chem. Chem. Phys. 7, 3297 (2005).

================================================================================
                                        WARNINGS
                       Please study these warnings very carefully!
================================================================================


WARNING: The frozen-core approximation for MP2-gradient calculations is turned on by default.

INFO   : the flag for use of LIBINT has been found!

----- Orbital basis set information -----
Your calculation utilizes the basis: def2-TZVP
   F. Weigend and R. Ahlrichs, Phys. Chem. Chem. Phys. 7, 3297 (2005).

================================================================================
                                        WARNINGS
                       Please study these warnings very carefully!
================================================================================


WARNING: The frozen-core approximation for MP2-gradient calculations is turned on by default.

INFO   : the flag for use of LIBINT has been found!

----- Orbital basis set information -----
Your calculation utilizes the basis: def2-TZVP
   F. Weigend and R. Ahlrichs, Phys. Chem. Chem. Phys. 7, 3297 (2005).

================================================================================
                                        WARNINGS
                       Please study these warnings very carefully!
================================================================================


WARNING: The frozen-core approximation for MP2-gradient calculations is turned on by default.

INFO   : the flag for use of LIBINT has been found!

----- Orbital basis set information -----
Your calculation utilizes the basis: def2-TZVP
   F. Weigend and R. Ahlrichs, Phys. Chem. Chem. Phys. 7, 3297 (2005).

================================================================================
                                        WARNINGS
                       Please study these warnings very carefully!
================================================================================


WARNING: The frozen-core approximation for MP2-gradient calculations is turned on by default.

INFO   : the flag for use of LIBINT has been found!

----- Orbital basis set information -----
Your calculation utilizes the basis: def2-TZVP
   F. Weigend and R. Ahlrichs, Phys. Chem. Chem. Phys. 7, 3297 (2005).

================================================================================
                                        WARNINGS
                       Please study these warnings very carefully!
================================================================================


WARNING: The frozen-core approximation for MP2-gradient calculations is turned on by default.

INFO   : the flag for use of LIBINT has been found!

----- Orbital basis set information -----
Your calculation utilizes the basis: def2-TZVP
   F. Weigend and R. Ahlrichs, Phys. Chem. Chem. Phys. 7, 3297 (2005).

================================================================================
                                        WARNINGS
                       Please study these warnings very carefully!
================================================================================


WARNING: The frozen-core approximation for MP2-gradient calculations is turned on by default.

INFO   : the flag for use of LIBINT has been found!

----- Orbital basis set information -----
Your calculation utilizes the basis: def2-TZVP
   F. Weigend and R. Ahlrichs, Phys. Chem. Chem. Phys. 7, 3297 (2005).

================================================================================
                                        WARNINGS
                       Please study these warnings very carefully!
================================================================================


WARNING: The frozen-core approximation for MP2-gradient calculations is turned on by default.

INFO   : the flag for use of LIBINT has been found!

----- Orbital basis set information -----
Your calculation utilizes the basis: def2-TZVP
   F. Weigend and R. Ahlrichs, Phys. Chem. Chem. Phys. 7, 3297 (2005).

================================================================================
                                        WARNINGS
                       Please study these warnings very carefully!
================================================================================


WARNING: The frozen-core approximation for MP2-gradient calculations is turned on by default.

INFO   : the flag for use of LIBINT has been found!

----- Orbital basis set information -----
Your calculation utilizes the basis: def2-TZVP
   F. Weigend and R. Ahlrichs, Phys. Chem. Chem. Phys. 7, 3297 (2005).

================================================================================
                                        WARNINGS
                       Please study these warnings very carefully!
================================================================================


WARNING: The frozen-core approximation for MP2-gradient calculations is turned on by default.

INFO   : the flag for use of LIBINT has been found!

----- Orbital basis set information -----
Your calculation utilizes the basis: def2-TZVP
   F. Weigend and R. Ahlrichs, Phys. Chem. Chem. Phys. 7, 3297 (2005).

================================================================================
                                        WARNINGS
                       Please study these warnings very carefully!
================================================================================


WARNING: The frozen-core approximation for MP2-gradient calculations is turned on by default.

INFO   : the flag for use of LIBINT has been found!

----- Orbital basis set information -----
Your calculation utilizes the basis: def2-TZVP
   F. Weigend and R. Ahlrichs, Phys. Chem. Chem. Phys. 7, 3297 (2005).

================================================================================
                                        WARNINGS
                       Please study these warnings very carefully!
================================================================================


WARNING: The frozen-core approximation for MP2-gradient calculations is turned on by default.

INFO   : the flag for use of LIBINT has been found!

----- Orbital basis set information -----
Your calculation utilizes the basis: def2-TZVP
   F. Weigend and R. Ahlrichs, Phys. Chem. Chem. Phys. 7, 3297 (2005).

================================================================================
                                        WARNINGS
                       Please study these warnings very carefully!
================================================================================


WARNING: The frozen-core approximation for MP2-gradient calculations is turned on by default.

INFO   : the flag for use of LIBINT has been found!

----- Orbital basis set information -----
Your calculation utilizes the basis: def2-TZVP
   F. Weigend and R. Ahlrichs, Phys. Chem. Chem. Phys. 7, 3297 (2005).

================================================================================
                                        WARNINGS
                       Please study these warnings very carefully!
================================================================================


WARNING: The frozen-core approximation for MP2-gradient calculations is turned on by default.

INFO   : the flag for use of LIBINT has been found!

----- Orbital basis set information -----
Your calculation utilizes the basis: def2-TZVP
   F. Weigend and R. Ahlrichs, Phys. Chem. Chem. Phys. 7, 3297 (2005).

================================================================================
                                        WARNINGS
                       Please study these warnings very carefully!
================================================================================


WARNING: The frozen-core approximation for MP2-gradient calculations is turned on by default.

INFO   : the flag for use of LIBINT has been found!

----- Orbital basis set information -----
Your calculation utilizes the basis: def2-TZVP
   F. Weigend and R. Ahlrichs, Phys. Chem. Chem. Phys. 7, 3297 (2005).

================================================================================
                                        WARNINGS
                       Please study these warnings very carefully!
================================================================================


WARNING: The frozen-core approximation for MP2-gradient calculations is turned on by default.

INFO   : the flag for use of LIBINT has been found!

----- Orbital basis set information -----
Your calculation utilizes the basis: def2-TZVP
   F. Weigend and R. Ahlrichs, Phys. Chem. Chem. Phys. 7, 3297 (2005).

================================================================================
                                        WARNINGS
                       Please study these warnings very carefully!
================================================================================


WARNING: The frozen-core approximation for MP2-gradient calculations is turned on by default.

INFO   : the flag for use of LIBINT has been found!

----- Orbital basis set information -----
Your calculation utilizes the basis: def2-TZVP
   F. Weigend and R. Ahlrichs, Phys. Chem. Chem. Phys. 7, 3297 (2005).

================================================================================
                                        WARNINGS
                       Please study these warnings very carefully!
================================================================================


WARNING: The frozen-core approximation for MP2-gradient calculations is turned on by default.

INFO   : the flag for use of LIBINT has been found!

----- Orbital basis set information -----
Your calculation utilizes the basis: def2-TZVP
   F. Weigend and R. Ahlrichs, Phys. Chem. Chem. Phys. 7, 3297 (2005).

================================================================================
                                        WARNINGS
                       Please study these warnings very carefully!
================================================================================


WARNING: The frozen-core approximation for MP2-gradient calculations is turned on by default.

INFO   : the flag for use of LIBINT has been found!

----- Orbital basis set information -----
Your calculation utilizes the basis: def2-TZVP
   F. Weigend and R. Ahlrichs, Phys. Chem. Chem. Phys. 7, 3297 (2005).

================================================================================
                                        WARNINGS
                       Please study these warnings very carefully!
================================================================================


WARNING: The frozen-core approximation for MP2-gradient calculations is turned on by default.

INFO   : the flag for use of LIBINT has been found!

----- Orbital basis set information -----
Your calculation utilizes the basis: def2-TZVP
   F. Weigend and R. Ahlrichs, Phys. Chem. Chem. Phys. 7, 3297 (2005).

================================================================================
                                        WARNINGS
                       Please study these warnings very carefully!
================================================================================


WARNING: The frozen-core approximation for MP2-gradient calculations is turned on by default.

INFO   : the flag for use of LIBINT has been found!

----- Orbital basis set information -----
Your calculation utilizes the basis: def2-TZVP
   F. Weigend and R. Ahlrichs, Phys. Chem. Chem. Phys. 7, 3297 (2005).

================================================================================
                                        WARNINGS
                       Please study these warnings very carefully!
================================================================================


WARNING: The frozen-core approximation for MP2-gradient calculations is turned on by default.

INFO   : the flag for use of LIBINT has been found!

----- Orbital basis set information -----
Your calculation utilizes the basis: def2-TZVP
   F. Weigend and R. Ahlrichs, Phys. Chem. Chem. Phys. 7, 3297 (2005).

================================================================================
                                        WARNINGS
                       Please study these warnings very carefully!
================================================================================


WARNING: The frozen-core approximation for MP2-gradient calculations is turned on by default.

INFO   : the flag for use of LIBINT has been found!

----- Orbital basis set information -----
Your calculation utilizes the basis: def2-TZVP
   F. Weigend and R. Ahlrichs, Phys. Chem. Chem. Phys. 7, 3297 (2005).

================================================================================
                                        WARNINGS
                       Please study these warnings very carefully!
================================================================================


WARNING: The frozen-core approximation for MP2-gradient calculations is turned on by default.

INFO   : the flag for use of LIBINT has been found!

----- Orbital basis set information -----
Your calculation utilizes the basis: def2-TZVP
   F. Weigend and R. Ahlrichs, Phys. Chem. Chem. Phys. 7, 3297 (2005).

================================================================================
                                        WARNINGS
                       Please study these warnings very carefully!
================================================================================


WARNING: The frozen-core approximation for MP2-gradient calculations is turned on by default.

INFO   : the flag for use of LIBINT has been found!

----- Orbital basis set information -----
Your calculation utilizes the basis: def2-TZVP
   F. Weigend and R. Ahlrichs, Phys. Chem. Chem. Phys. 7, 3297 (2005).

================================================================================
                                        WARNINGS
                       Please study these warnings very carefully!
================================================================================


WARNING: The frozen-core approximation for MP2-gradient calculations is turned on by default.

INFO   : the flag for use of LIBINT has been found!

----- Orbital basis set information -----
Your calculation utilizes the basis: def2-TZVP
   F. Weigend and R. Ahlrichs, Phys. Chem. Chem. Phys. 7, 3297 (2005).

================================================================================
                                        WARNINGS
                       Please study these warnings very carefully!
================================================================================


WARNING: The frozen-core approximation for MP2-gradient calculations is turned on by default.

INFO   : the flag for use of LIBINT has been found!

----- Orbital basis set information -----
Your calculation utilizes the basis: def2-TZVP
   F. Weigend and R. Ahlrichs, Phys. Chem. Chem. Phys. 7, 3297 (2005).

================================================================================
                                        WARNINGS
                       Please study these warnings very carefully!
================================================================================


WARNING: The frozen-core approximation for MP2-gradient calculations is turned on by default.

INFO   : the flag for use of LIBINT has been found!

----- Orbital basis set information -----
Your calculation utilizes the basis: def2-TZVP
   F. Weigend and R. Ahlrichs, Phys. Chem. Chem. Phys. 7, 3297 (2005).

================================================================================
                                        WARNINGS
                       Please study these warnings very carefully!
================================================================================


WARNING: The frozen-core approximation for MP2-gradient calculations is turned on by default.

INFO   : the flag for use of LIBINT has been found!

----- Orbital basis set information -----
Your calculation utilizes the basis: def2-TZVP
   F. Weigend and R. Ahlrichs, Phys. Chem. Chem. Phys. 7, 3297 (2005).

================================================================================
                                        WARNINGS
                       Please study these warnings very carefully!
================================================================================


WARNING: The frozen-core approximation for MP2-gradient calculations is turned on by default.

INFO   : the flag for use of LIBINT has been found!

----- Orbital basis set information -----
Your calculation utilizes the basis: def2-TZVP
   F. Weigend and R. Ahlrichs, Phys. Chem. Chem. Phys. 7, 3297 (2005).

================================================================================
                                        WARNINGS
                       Please study these warnings very carefully!
================================================================================


WARNING: The frozen-core approximation for MP2-gradient calculations is turned on by default.

INFO   : the flag for use of LIBINT has been found!

----- Orbital basis set information -----
Your calculation utilizes the basis: def2-TZVP
   F. Weigend and R. Ahlrichs, Phys. Chem. Chem. Phys. 7, 3297 (2005).

================================================================================
                                        WARNINGS
                       Please study these warnings very carefully!
================================================================================


WARNING: The frozen-core approximation for MP2-gradient calculations is turned on by default.

INFO   : the flag for use of LIBINT has been found!

----- Orbital basis set information -----
Your calculation utilizes the basis: def2-TZVP
   F. Weigend and R. Ahlrichs, Phys. Chem. Chem. Phys. 7, 3297 (2005).

================================================================================
                                        WARNINGS
                       Please study these warnings very carefully!
================================================================================


WARNING: The frozen-core approximation for MP2-gradient calculations is turned on by default.

INFO   : the flag for use of LIBINT has been found!

----- Orbital basis set information -----
Your calculation utilizes the basis: def2-TZVP
   F. Weigend and R. Ahlrichs, Phys. Chem. Chem. Phys. 7, 3297 (2005).

================================================================================
                                        WARNINGS
                       Please study these warnings very carefully!
================================================================================


WARNING: The frozen-core approximation for MP2-gradient calculations is turned on by default.

INFO   : the flag for use of LIBINT has been found!

----- Orbital basis set information -----
Your calculation utilizes the basis: def2-TZVP
   F. Weigend and R. Ahlrichs, Phys. Chem. Chem. Phys. 7, 3297 (2005).

================================================================================
                                        WARNINGS
                       Please study these warnings very carefully!
================================================================================


WARNING: The frozen-core approximation for MP2-gradient calculations is turned on by default.

INFO   : the flag for use of LIBINT has been found!

----- Orbital basis set information -----
Your calculation utilizes the basis: def2-TZVP
   F. Weigend and R. Ahlrichs, Phys. Chem. Chem. Phys. 7, 3297 (2005).

================================================================================
                                        WARNINGS
                       Please study these warnings very carefully!
================================================================================


WARNING: The frozen-core approximation for MP2-gradient calculations is turned on by default.

INFO   : the flag for use of LIBINT has been found!

----- Orbital basis set information -----
Your calculation utilizes the basis: def2-TZVP
   F. Weigend and R. Ahlrichs, Phys. Chem. Chem. Phys. 7, 3297 (2005).

================================================================================
                                        WARNINGS
                       Please study these warnings very carefully!
================================================================================


WARNING: The frozen-core approximation for MP2-gradient calculations is turned on by default.

INFO   : the flag for use of LIBINT has been found!

----- Orbital basis set information -----
Your calculation utilizes the basis: def2-TZVP
   F. Weigend and R. Ahlrichs, Phys. Chem. Chem. Phys. 7, 3297 (2005).

================================================================================
                                        WARNINGS
                       Please study these warnings very carefully!
================================================================================


WARNING: The frozen-core approximation for MP2-gradient calculations is turned on by default.

INFO   : the flag for use of LIBINT has been found!

----- Orbital basis set information -----
Your calculation utilizes the basis: def2-TZVP
   F. Weigend and R. Ahlrichs, Phys. Chem. Chem. Phys. 7, 3297 (2005).

================================================================================
                                        WARNINGS
                       Please study these warnings very carefully!
================================================================================


WARNING: The frozen-core approximation for MP2-gradient calculations is turned on by default.

INFO   : the flag for use of LIBINT has been found!

----- Orbital basis set information -----
Your calculation utilizes the basis: def2-TZVP
   F. Weigend and R. Ahlrichs, Phys. Chem. Chem. Phys. 7, 3297 (2005).

================================================================================
                                        WARNINGS
                       Please study these warnings very carefully!
================================================================================


WARNING: The frozen-core approximation for MP2-gradient calculations is turned on by default.

INFO   : the flag for use of LIBINT has been found!

----- Orbital basis set information -----
Your calculation utilizes the basis: def2-TZVP
   F. Weigend and R. Ahlrichs, Phys. Chem. Chem. Phys. 7, 3297 (2005).

================================================================================
                                        WARNINGS
                       Please study these warnings very carefully!
================================================================================


WARNING: The frozen-core approximation for MP2-gradient calculations is turned on by default.

INFO   : the flag for use of LIBINT has been found!

----- Orbital basis set information -----
Your calculation utilizes the basis: def2-TZVP
   F. Weigend and R. Ahlrichs, Phys. Chem. Chem. Phys. 7, 3297 (2005).

================================================================================
                                        WARNINGS
                       Please study these warnings very carefully!
================================================================================


WARNING: The frozen-core approximation for MP2-gradient calculations is turned on by default.

INFO   : the flag for use of LIBINT has been found!

----- Orbital basis set information -----
Your calculation utilizes the basis: def2-TZVP
   F. Weigend and R. Ahlrichs, Phys. Chem. Chem. Phys. 7, 3297 (2005).

================================================================================
                                        WARNINGS
                       Please study these warnings very carefully!
================================================================================


WARNING: The frozen-core approximation for MP2-gradient calculations is turned on by default.

INFO   : the flag for use of LIBINT has been found!

----- Orbital basis set information -----
Your calculation utilizes the basis: def2-TZVP
   F. Weigend and R. Ahlrichs, Phys. Chem. Chem. Phys. 7, 3297 (2005).

================================================================================
                                        WARNINGS
                       Please study these warnings very carefully!
================================================================================


WARNING: The frozen-core approximation for MP2-gradient calculations is turned on by default.

INFO   : the flag for use of LIBINT has been found!

----- Orbital basis set information -----
Your calculation utilizes the basis: def2-TZVP
   F. Weigend and R. Ahlrichs, Phys. Chem. Chem. Phys. 7, 3297 (2005).

================================================================================
                                        WARNINGS
                       Please study these warnings very carefully!
================================================================================


WARNING: The frozen-core approximation for MP2-gradient calculations is turned on by default.

INFO   : the flag for use of LIBINT has been found!

----- Orbital basis set information -----
Your calculation utilizes the basis: def2-TZVP
   F. Weigend and R. Ahlrichs, Phys. Chem. Chem. Phys. 7, 3297 (2005).

================================================================================
                                        WARNINGS
                       Please study these warnings very carefully!
================================================================================


WARNING: The frozen-core approximation for MP2-gradient calculations is turned on by default.

INFO   : the flag for use of LIBINT has been found!

----- Orbital basis set information -----
Your calculation utilizes the basis: def2-TZVP
   F. Weigend and R. Ahlrichs, Phys. Chem. Chem. Phys. 7, 3297 (2005).

================================================================================
                                        WARNINGS
                       Please study these warnings very carefully!
================================================================================


WARNING: The frozen-core approximation for MP2-gradient calculations is turned on by default.

INFO   : the flag for use of LIBINT has been found!

----- Orbital basis set information -----
Your calculation utilizes the basis: def2-TZVP
   F. Weigend and R. Ahlrichs, Phys. Chem. Chem. Phys. 7, 3297 (2005).

================================================================================
                                        WARNINGS
                       Please study these warnings very carefully!
================================================================================


WARNING: The frozen-core approximation for MP2-gradient calculations is turned on by default.

INFO   : the flag for use of LIBINT has been found!

----- Orbital basis set information -----
Your calculation utilizes the basis: def2-TZVP
   F. Weigend and R. Ahlrichs, Phys. Chem. Chem. Phys. 7, 3297 (2005).

================================================================================
                                        WARNINGS
                       Please study these warnings very carefully!
================================================================================


WARNING: The frozen-core approximation for MP2-gradient calculations is turned on by default.

INFO   : the flag for use of LIBINT has been found!

----- Orbital basis set information -----
Your calculation utilizes the basis: def2-TZVP
   F. Weigend and R. Ahlrichs, Phys. Chem. Chem. Phys. 7, 3297 (2005).

================================================================================
                                        WARNINGS
                       Please study these warnings very carefully!
================================================================================


WARNING: The frozen-core approximation for MP2-gradient calculations is turned on by default.

INFO   : the flag for use of LIBINT has been found!

----- Orbital basis set information -----
Your calculation utilizes the basis: def2-TZVP
   F. Weigend and R. Ahlrichs, Phys. Chem. Chem. Phys. 7, 3297 (2005).

================================================================================
                                        WARNINGS
                       Please study these warnings very carefully!
================================================================================


WARNING: The frozen-core approximation for MP2-gradient calculations is turned on by default.

INFO   : the flag for use of LIBINT has been found!

----- Orbital basis set information -----
Your calculation utilizes the basis: def2-TZVP
   F. Weigend and R. Ahlrichs, Phys. Chem. Chem. Phys. 7, 3297 (2005).

================================================================================
                                        WARNINGS
                       Please study these warnings very carefully!
================================================================================


WARNING: The frozen-core approximation for MP2-gradient calculations is turned on by default.

INFO   : the flag for use of LIBINT has been found!

================================================================================
                                       INPUT FILE
================================================================================
NAME = 5h2o.temelso.etal.dset.3h2o.dset-orca.engrad-mp2.def2tzvp.inp
|  1> # 5h2o.temelso.etal.dset.3h2o.dset-orca.engrad-mp2.def2tzvp
|  2> ! MP2 def2-TZVP EnGrad TightSCF FrozenCore
|  3> 
|  4> %pal
|  5>     nprocs 12
|  6> end
|  7> 
|  8> %maxcore 8000
|  9> 
| 10> %scf
| 11>     ConvForced true
| 12> end
| 13> 
| 14> *xyz 0 1
| 15> O  -0.071613226  -2.226864692  -0.591605332
| 16> H  -0.612313226  -2.477064692  -1.350605332
| 17> H  -0.451413226  -1.370064692  -0.283805332
| 18> O  -1.027813226   0.196935308   0.216694668
| 19> H  -0.307513226   0.867235308   0.279694668
| 20> H  -1.509013226   0.268435308   1.049494668
| 21> O   1.077786774   1.955835308   0.319994668
| 22> H   1.322886774   2.395135308   1.143294668
| 23> H   1.900886774   1.492535308   0.033694668
| 24> *
| 25> 
| 26> 
| 27> $new_job
| 28> 
| 29> # 5h2o.temelso.etal.dset.3h2o.dset-orca.engrad-mp2.def2tzvp
| 30> ! MP2 def2-TZVP EnGrad TightSCF FrozenCore
| 31> 
| 32> %pal
| 33>     nprocs 12
| 34> end
| 35> 
| 36> %maxcore 8000
| 37> 
| 38> %scf
| 39>     ConvForced true
| 40> end
| 41> 
| 42> *xyz 0 1
| 43> O  -0.802337100  -1.761382827  -0.307991142
| 44> H  -1.343037100  -2.011582827  -1.066991142
| 45> H  -1.182137100  -0.904582827  -0.000191142
| 46> O  -1.758537100   0.662417173   0.500308858
| 47> H  -1.038237100   1.332717173   0.563308858
| 48> H  -2.239737100   0.733917173   1.333108858
| 49> O   2.585562900   1.060117173  -0.162991142
| 50> H   2.377262900   0.110317173  -0.330091142
| 51> H   3.033962900   1.355917173  -0.964691142
| 52> *
| 53> 
| 54> 
| 55> $new_job
| 56> 
| 57> # 5h2o.temelso.etal.dset.3h2o.dset-orca.engrad-mp2.def2tzvp
| 58> ! MP2 def2-TZVP EnGrad TightSCF FrozenCore
| 59> 
| 60> %pal
| 61>     nprocs 12
| 62> end
| 63> 
| 64> %maxcore 8000
| 65> 
| 66> %scf
| 67>     ConvForced true
| 68> end
| 69> 
| 70> *xyz 0 1
| 71> O  -0.556386620  -0.893477383  -0.179644993
| 72> H  -1.097086620  -1.143677383  -0.938644993
| 73> H  -0.936186620  -0.036677383   0.128155007
| 74> O  -1.512586620   1.530322617   0.628655007
| 75> H  -0.792286620   2.200622617   0.691655007
| 76> H  -1.993786620   1.601822617   1.461455007
| 77> O   2.139313380  -0.665377383  -0.508244993
| 78> H   1.165813380  -0.789977383  -0.406944993
| 79> H   2.536913380  -1.379177383   0.004655007
| 80> *
| 81> 
| 82> 
| 83> $new_job
| 84> 
| 85> # 5h2o.temelso.etal.dset.3h2o.dset-orca.engrad-mp2.def2tzvp
| 86> ! MP2 def2-TZVP EnGrad TightSCF FrozenCore
| 87> 
| 88> %pal
| 89>     nprocs 12
| 90> end
| 91> 
| 92> %maxcore 8000
| 93> 
| 94> %scf
| 95>     ConvForced true
| 96> end
| 97> 
| 98> *xyz 0 1
| 99> O  -1.519665208  -2.333401833  -0.335733406
|100> H  -2.060365208  -2.583601833  -1.094733406
|101> H  -1.899465208  -1.476601833  -0.027933406
|102> O  -0.370265208   1.849298167   0.575866594
|103> H  -0.125165208   2.288598167   1.399166594
|104> H   0.452834792   1.385998167   0.289566594
|105> O   1.868234792   0.488098167  -0.190733406
|106> H   1.659934792  -0.461701833  -0.357833406
|107> H   2.316634792   0.783898167  -0.992433406
|108> *
|109> 
|110> 
|111> $new_job
|112> 
|113> # 5h2o.temelso.etal.dset.3h2o.dset-orca.engrad-mp2.def2tzvp
|114> ! MP2 def2-TZVP EnGrad TightSCF FrozenCore
|115> 
|116> %pal
|117>     nprocs 12
|118> end
|119> 
|120> %maxcore 8000
|121> 
|122> %scf
|123>     ConvForced true
|124> end
|125> 
|126> *xyz 0 1
|127> O  -1.273714728  -1.465496390  -0.207387258
|128> H  -1.814414728  -1.715696390  -0.966387258
|129> H  -1.653514728  -0.608696390   0.100412742
|130> O  -0.124314728   2.717203610   0.704212742
|131> H   0.120785272   3.156503610   1.527512742
|132> H   0.698785272   2.253903610   0.417912742
|133> O   1.421985272  -1.237396390  -0.535987258
|134> H   0.448485272  -1.361996390  -0.434687258
|135> H   1.819585272  -1.951196390  -0.023087258
|136> *
|137> 
|138> 
|139> $new_job
|140> 
|141> # 5h2o.temelso.etal.dset.3h2o.dset-orca.engrad-mp2.def2tzvp
|142> ! MP2 def2-TZVP EnGrad TightSCF FrozenCore
|143> 
|144> %pal
|145>     nprocs 12
|146> end
|147> 
|148> %maxcore 8000
|149> 
|150> %scf
|151>     ConvForced true
|152> end
|153> 
|154> *xyz 0 1
|155> O  -2.004438602  -1.000014524   0.076226932
|156> H  -2.545138602  -1.250214524  -0.682773068
|157> H  -2.384238602  -0.143214524   0.384026932
|158> O   1.383461398   1.821485476   0.221226932
|159> H   1.175161398   0.871685476   0.054126932
|160> H   1.831861398   2.117285476  -0.580473068
|161> O   0.691261398  -0.771914524  -0.252373068
|162> H  -0.282238602  -0.896514524  -0.151073068
|163> H   1.088861398  -1.485714524   0.260526932
|164> *
|165> 
|166> 
|167> $new_job
|168> 
|169> # 5h2o.temelso.etal.dset.3h2o.dset-orca.engrad-mp2.def2tzvp
|170> ! MP2 def2-TZVP EnGrad TightSCF FrozenCore
|171> 
|172> %pal
|173>     nprocs 12
|174> end
|175> 
|176> %maxcore 8000
|177> 
|178> %scf
|179>     ConvForced true
|180> end
|181> 
|182> *xyz 0 1
|183> O  -2.178756633  -0.720056439   0.178013779
|184> H  -1.458456633  -0.049756439   0.241013779
|185> H  -2.659956633  -0.648556439   1.010813779
|186> O  -0.073156633   1.038843561   0.281313779
|187> H   0.171943367   1.478143561   1.104613779
|188> H   0.749943367   0.575543561  -0.004986221
|189> O   2.165343367  -0.322356439  -0.485286221
|190> H   1.957043367  -1.272156439  -0.652386221
|191> H   2.613743367  -0.026556439  -1.286986221
|192> *
|193> 
|194> 
|195> $new_job
|196> 
|197> # 5h2o.temelso.etal.dset.3h2o.dset-orca.engrad-mp2.def2tzvp
|198> ! MP2 def2-TZVP EnGrad TightSCF FrozenCore
|199> 
|200> %pal
|201>     nprocs 12
|202> end
|203> 
|204> %maxcore 8000
|205> 
|206> %scf
|207>     ConvForced true
|208> end
|209> 
|210> *xyz 0 1
|211> O  -1.932806153   0.147849005   0.306359928
|212> H  -1.212506153   0.818149005   0.369359928
|213> H  -2.414006153   0.219349005   1.139159928
|214> O   0.172793847   1.906749005   0.409659928
|215> H   0.417893847   2.346049005   1.232959928
|216> H   0.995893847   1.443449005   0.123359928
|217> O   1.719093847  -2.047850995  -0.830540072
|218> H   0.745593847  -2.172450995  -0.729240072
|219> H   2.116693847  -2.761650995  -0.317640072
|220> *
|221> 
|222> 
|223> $new_job
|224> 
|225> # 5h2o.temelso.etal.dset.3h2o.dset-orca.engrad-mp2.def2tzvp
|226> ! MP2 def2-TZVP EnGrad TightSCF FrozenCore
|227> 
|228> %pal
|229>     nprocs 12
|230> end
|231> 
|232> %maxcore 8000
|233> 
|234> %scf
|235>     ConvForced true
|236> end
|237> 
|238> *xyz 0 1
|239> O  -2.663530027   0.613330870   0.589974118
|240> H  -1.943230027   1.283630870   0.652974118
|241> H  -3.144730027   0.684830870   1.422774118
|242> O   1.680569973   1.011030870  -0.073325882
|243> H   1.472269973   0.061230870  -0.240425882
|244> H   2.128969973   1.306830870  -0.875025882
|245> O   0.988369973  -1.582369130  -0.546925882
|246> H   0.014869973  -1.706969130  -0.445625882
|247> H   1.385969973  -2.296169130  -0.034025882
|248> *
|249> 
|250> 
|251> $new_job
|252> 
|253> # 5h2o.temelso.etal.dset.3h2o.dset-orca.engrad-mp2.def2tzvp
|254> ! MP2 def2-TZVP EnGrad TightSCF FrozenCore
|255> 
|256> %pal
|257>     nprocs 12
|258> end
|259> 
|260> %maxcore 8000
|261> 
|262> %scf
|263>     ConvForced true
|264> end
|265> 
|266> *xyz 0 1
|267> O  -1.275258135   1.800211864   0.665531854
|268> H  -1.030158135   2.239511864   1.488831854
|269> H  -0.452158135   1.336911864   0.379231854
|270> O   0.963241865   0.439011864  -0.101068146
|271> H   0.754941865  -0.510788136  -0.268168146
|272> H   1.411641865   0.734811864  -0.902768146
|273> O   0.271041865  -2.154388136  -0.574668146
|274> H  -0.702458135  -2.278988136  -0.473368146
|275> H   0.668641865  -2.868188136  -0.061768146
|276> *
|277> 
|278> 
|279> $new_job
|280> 
|281> # 5h2o.temelso.etal.dset.3h2o.dset-orca.engrad-mp2.def2tzvp
|282> ! MP2 def2-TZVP EnGrad TightSCF FrozenCore
|283> 
|284> %pal
|285>     nprocs 12
|286> end
|287> 
|288> %maxcore 8000
|289> 
|290> %scf
|291>     ConvForced true
|292> end
|293> 
|294> *xyz 0 1
|295> O  -0.861777421   1.620419479   1.061956173
|296> H  -0.994577421   0.822119479   0.492556173
|297> H  -1.588477421   1.605819479   1.696056173
|298> O  -0.937977421  -0.602180521  -0.494443827
|299> H   0.012422579  -0.865380521  -0.524343827
|300> H  -1.187977421  -0.499480521  -1.421243827
|301> O   1.766422579  -0.972380521  -0.568043827
|302> H   2.269422579  -1.660480521  -0.116143827
|303> H   2.018322579  -0.130580521  -0.118443827
|304> *
|305> 
|306> 
|307> $new_job
|308> 
|309> # 5h2o.temelso.etal.dset.3h2o.dset-orca.engrad-mp2.def2tzvp
|310> ! MP2 def2-TZVP EnGrad TightSCF FrozenCore
|311> 
|312> %pal
|313>     nprocs 12
|314> end
|315> 
|316> %maxcore 8000
|317> 
|318> %scf
|319>     ConvForced true
|320> end
|321> 
|322> *xyz 0 1
|323> O  -0.930854507   0.822409881   0.629146561
|324> H  -1.063654507   0.024109881   0.059746561
|325> H  -1.657554507   0.807809881   1.263246561
|326> O  -1.007054507  -1.400190119  -0.927253439
|327> H  -0.056654507  -1.663390119  -0.957153439
|328> H  -1.257054507  -1.297490119  -1.854053439
|329> O   2.001345493   0.589209881   0.349246561
|330> H   1.853045493   1.393309881  -0.183253439
|331> H   1.174845493   0.554209881   0.859646561
|332> *
|333> 
|334> 
|335> $new_job
|336> 
|337> # 5h2o.temelso.etal.dset.3h2o.dset-orca.engrad-mp2.def2tzvp
|338> ! MP2 def2-TZVP EnGrad TightSCF FrozenCore
|339> 
|340> %pal
|341>     nprocs 12
|342> end
|343> 
|344> %maxcore 8000
|345> 
|346> %scf
|347>     ConvForced true
|348> end
|349> 
|350> *xyz 0 1
|351> O  -0.453976077   0.088214257   0.971606296
|352> H  -0.586776077  -0.710085743   0.402206296
|353> H  -1.180676077   0.073614257   1.605706296
|354> O  -0.530176077  -2.134385743  -0.584793704
|355> H   0.420223923  -2.397585743  -0.614693704
|356> H  -0.780176077  -2.031685743  -1.511593704
|357> O   1.031923923   2.080214257  -0.386493704
|358> H   1.037123923   2.946914257   0.038006296
|359> H   0.331923923   1.578414257   0.075306296
|360> *
|361> 
|362> 
|363> $new_job
|364> 
|365> # 5h2o.temelso.etal.dset.3h2o.dset-orca.engrad-mp2.def2tzvp
|366> ! MP2 def2-TZVP EnGrad TightSCF FrozenCore
|367> 
|368> %pal
|369>     nprocs 12
|370> end
|371> 
|372> %maxcore 8000
|373> 
|374> %scf
|375>     ConvForced true
|376> end
|377> 
|378> *xyz 0 1
|379> O  -1.833337515   0.939950534   0.619027319
|380> H  -1.966137515   0.141650534   0.049627319
|381> H  -2.560037515   0.925350534   1.253127319
|382> O   0.794862485  -1.652849466  -1.010972681
|383> H   1.297862485  -2.340949466  -0.559072681
|384> H   1.046762485  -0.811049466  -0.561372681
|385> O   1.098862485   0.706750534   0.339127319
|386> H   0.950562485   1.510850534  -0.193372681
|387> H   0.272362485   0.671750534   0.849527319
|388> *
|389> 
|390> 
|391> $new_job
|392> 
|393> # 5h2o.temelso.etal.dset.3h2o.dset-orca.engrad-mp2.def2tzvp
|394> ! MP2 def2-TZVP EnGrad TightSCF FrozenCore
|395> 
|396> %pal
|397>     nprocs 12
|398> end
|399> 
|400> %maxcore 8000
|401> 
|402> %scf
|403>     ConvForced true
|404> end
|405> 
|406> *xyz 0 1
|407> O  -1.356459085   0.205754910   0.961487054
|408> H  -1.489259085  -0.592545090   0.392087054
|409> H  -2.083159085   0.191154910   1.595587054
|410> O   1.271740915  -2.387045090  -0.668512946
|411> H   1.774740915  -3.075145090  -0.216612946
|412> H   1.523640915  -1.545245090  -0.218912946
|413> O   0.129440915   2.197754910  -0.396612946
|414> H   0.134640915   3.064454910   0.027887054
|415> H  -0.570559085   1.695954910   0.065187054
|416> *
|417> 
|418> 
|419> $new_job
|420> 
|421> # 5h2o.temelso.etal.dset.3h2o.dset-orca.engrad-mp2.def2tzvp
|422> ! MP2 def2-TZVP EnGrad TightSCF FrozenCore
|423> 
|424> %pal
|425>     nprocs 12
|426> end
|427> 
|428> %maxcore 8000
|429> 
|430> %scf
|431>     ConvForced true
|432> end
|433> 
|434> *xyz 0 1
|435> O  -1.425536170  -0.592254688   0.528677442
|436> H  -1.558336170  -1.390554688  -0.040722558
|437> H  -2.152236170  -0.606854688   1.162777442
|438> O   1.506663830  -0.825454688   0.248777442
|439> H   1.358363830  -0.021354688  -0.283722558
|440> H   0.680163830  -0.860454688   0.759177442
|441> O   0.060363830   1.399745312  -0.829422558
|442> H   0.065563830   2.266445312  -0.404922558
|443> H  -0.639636170   0.897945312  -0.367622558
|444> *
|445> 
|446> 
|447> $new_job
|448> 
|449> # 5h2o.temelso.etal.dset.3h2o.dset-orca.engrad-mp2.def2tzvp
|450> ! MP2 def2-TZVP EnGrad TightSCF FrozenCore
|451> 
|452> %pal
|453>     nprocs 12
|454> end
|455> 
|456> %maxcore 8000
|457> 
|458> %scf
|459>     ConvForced true
|460> end
|461> 
|462> *xyz 0 1
|463> O  -1.913227254  -0.553949057  -0.399525140
|464> H  -0.962827254  -0.817149057  -0.429425140
|465> H  -2.163227254  -0.451249057  -1.326325140
|466> O   0.791172746  -0.924149057  -0.473125140
|467> H   1.294172746  -1.612249057  -0.021225140
|468> H   1.043072746  -0.082349057  -0.023525140
|469> O   1.095172746   1.435450943   0.876974860
|470> H   0.946872746   2.239550943   0.344474860
|471> H   0.268672746   1.400450943   1.387374860
|472> *
|473> 
|474> 
|475> $new_job
|476> 
|477> # 5h2o.temelso.etal.dset.3h2o.dset-orca.engrad-mp2.def2tzvp
|478> ! MP2 def2-TZVP EnGrad TightSCF FrozenCore
|479> 
|480> %pal
|481>     nprocs 12
|482> end
|483> 
|484> %maxcore 8000
|485> 
|486> %scf
|487>     ConvForced true
|488> end
|489> 
|490> *xyz 0 1
|491> O  -1.436348823  -1.288144682  -0.057065405
|492> H  -0.485948823  -1.551344682  -0.086965405
|493> H  -1.686348823  -1.185444682  -0.983865405
|494> O   1.268051177  -1.658344682  -0.130665405
|495> H   1.771051177  -2.346444682   0.321234595
|496> H   1.519951177  -0.816544682   0.318934595
|497> O   0.125751177   2.926455318   0.141234595
|498> H   0.130951177   3.793155318   0.565734595
|499> H  -0.574248823   2.424655318   0.603034595
|500> *
|501> 
|502> 
|503> $new_job
|504> 
|505> # 5h2o.temelso.etal.dset.3h2o.dset-orca.engrad-mp2.def2tzvp
|506> ! MP2 def2-TZVP EnGrad TightSCF FrozenCore
|507> 
|508> %pal
|509>     nprocs 12
|510> end
|511> 
|512> %maxcore 8000
|513> 
|514> %scf
|515>     ConvForced true
|516> end
|517> 
|518> *xyz 0 1
|519> O  -1.505425909  -2.086154279  -0.489875017
|520> H  -0.555025909  -2.349354279  -0.519775017
|521> H  -1.755425909  -1.983454279  -1.416675017
|522> O   1.502974091  -0.096754279   0.786624983
|523> H   1.354674091   0.707345721   0.254124983
|524> H   0.676474091  -0.131754279   1.297024983
|525> O   0.056674091   2.128445721  -0.291575017
|526> H   0.061874091   2.995145721   0.132924983
|527> H  -0.643325909   1.626645721   0.170224983
|528> *
|529> 
|530> 
|531> $new_job
|532> 
|533> # 5h2o.temelso.etal.dset.3h2o.dset-orca.engrad-mp2.def2tzvp
|534> ! MP2 def2-TZVP EnGrad TightSCF FrozenCore
|535> 
|536> %pal
|537>     nprocs 12
|538> end
|539> 
|540> %maxcore 8000
|541> 
|542> %scf
|543>     ConvForced true
|544> end
|545> 
|546> *xyz 0 1
|547> O   0.296491083  -2.338813627  -0.573594259
|548> H   0.799491083  -3.026913627  -0.121694259
|549> H   0.548391083  -1.497013627  -0.123994259
|550> O   0.600491083   0.020786373   0.776505741
|551> H   0.452191083   0.824886373   0.244005741
|552> H  -0.226008917  -0.014213627   1.286905741
|553> O  -0.845808917   2.245986373  -0.301694259
|554> H  -0.840608917   3.112686373   0.122805741
|555> H  -1.545808917   1.744186373   0.160105741
|556> *
|557> 
|558> 
|559> $new_job
|560> 
|561> # 5h2o.temelso.etal.dset.3h2o.dset-orca.engrad-mp2.def2tzvp
|562> ! MP2 def2-TZVP EnGrad TightSCF FrozenCore
|563> 
|564> %pal
|565>     nprocs 12
|566> end
|567> 
|568> %maxcore 8000
|569> 
|570> %scf
|571>     ConvForced true
|572> end
|573> 
|574> *xyz 0 1
|575> O  -0.029499562   0.170633589   1.547775697
|576> H   0.776200438   0.031433589   1.021075697
|577> H  -0.242599562   1.094033589   1.339575697
|578> O   1.718400438   0.201233589  -0.833224303
|579> H   1.299800438  -0.538766411  -1.340724303
|580> H   2.635400438   0.231933589  -1.131624303
|581> O  -1.780399562  -0.427566411  -0.663624303
|582> H  -1.340699562  -0.442766411   0.210075697
|583> H  -1.675599562   0.508333589  -0.906824303
|584> *
|585> 
|586> 
|587> $new_job
|588> 
|589> # 5h2o.temelso.etal.dset.3h2o.dset-orca.engrad-mp2.def2tzvp
|590> ! MP2 def2-TZVP EnGrad TightSCF FrozenCore
|591> 
|592> %pal
|593>     nprocs 12
|594> end
|595> 
|596> %maxcore 8000
|597> 
|598> %scf
|599>     ConvForced true
|600> end
|601> 
|602> *xyz 0 1
|603> O  -0.519470586  -0.665804856   1.582444801
|604> H   0.286229414  -0.805004856   1.055744801
|605> H  -0.732570586   0.257595144   1.374244801
|606> O   1.228429414  -0.635204856  -0.798555199
|607> H   0.809829414  -1.375204856  -1.306055199
|608> H   2.145429414  -0.604504856  -1.096955199
|609> O  -0.820670586   1.276595144  -0.660955199
|610> H  -0.736270586   2.127795144  -1.107355199
|611> H   0.000729414   0.786895144  -0.871155199
|612> *
|613> 
|614> 
|615> $new_job
|616> 
|617> # 5h2o.temelso.etal.dset.3h2o.dset-orca.engrad-mp2.def2tzvp
|618> ! MP2 def2-TZVP EnGrad TightSCF FrozenCore
|619> 
|620> %pal
|621>     nprocs 12
|622> end
|623> 
|624> %maxcore 8000
|625> 
|626> %scf
|627>     ConvForced true
|628> end
|629> 
|630> *xyz 0 1
|631> O  -0.663991271   0.608020964   2.021700148
|632> H   0.141708729   0.468820964   1.495000148
|633> H  -0.877091271   1.531420964   1.813500148
|634> O   1.083908729   0.638620964  -0.359299852
|635> H   0.665308729  -0.101379036  -0.866799852
|636> H   2.000908729   0.669320964  -0.657699852
|637> O  -0.436091271  -1.219279036  -1.614499852
|638> H  -1.257491271  -0.856179036  -1.198799852
|639> H  -0.416591271  -2.146379036  -1.345599852
|640> *
|641> 
|642> 
|643> $new_job
|644> 
|645> # 5h2o.temelso.etal.dset.3h2o.dset-orca.engrad-mp2.def2tzvp
|646> ! MP2 def2-TZVP EnGrad TightSCF FrozenCore
|647> 
|648> %pal
|649>     nprocs 12
|650> end
|651> 
|652> %maxcore 8000
|653> 
|654> %scf
|655>     ConvForced true
|656> end
|657> 
|658> *xyz 0 1
|659> O   0.645936387  -0.486601852   1.499124814
|660> H   1.451636387  -0.625801852   0.972424814
|661> H   0.432836387   0.436798148   1.290924814
|662> O  -1.104963613  -1.084801852  -0.712275186
|663> H  -0.665263613  -1.100001852   0.161424814
|664> H  -1.000163613  -0.148901852  -0.955475186
|665> O   0.344736387   1.455798148  -0.744275186
|666> H   0.429136387   2.306998148  -1.190675186
|667> H   1.166136387   0.966098148  -0.954475186
|668> *
|669> 
|670> 
|671> $new_job
|672> 
|673> # 5h2o.temelso.etal.dset.3h2o.dset-orca.engrad-mp2.def2tzvp
|674> ! MP2 def2-TZVP EnGrad TightSCF FrozenCore
|675> 
|676> %pal
|677>     nprocs 12
|678> end
|679> 
|680> %maxcore 8000
|681> 
|682> %scf
|683>     ConvForced true
|684> end
|685> 
|686> *xyz 0 1
|687> O   0.501415702   0.787223968   1.938380161
|688> H   1.307115702   0.648023968   1.411680161
|689> H   0.288315702   1.710623968   1.730180161
|690> O  -1.249484298   0.189023968  -0.273019839
|691> H  -0.809784298   0.173823968   0.600680161
|692> H  -1.144684298   1.124923968  -0.516219839
|693> O   0.729315702  -1.040076032  -1.697819839
|694> H  -0.092084298  -0.676976032  -1.282119839
|695> H   0.748815702  -1.967176032  -1.428919839
|696> *
|697> 
|698> 
|699> $new_job
|700> 
|701> # 5h2o.temelso.etal.dset.3h2o.dset-orca.engrad-mp2.def2tzvp
|702> ! MP2 def2-TZVP EnGrad TightSCF FrozenCore
|703> 
|704> %pal
|705>     nprocs 12
|706> end
|707> 
|708> %maxcore 8000
|709> 
|710> %scf
|711>     ConvForced true
|712> end
|713> 
|714> *xyz 0 1
|715> O   0.011444678  -0.049214478   1.973049266
|716> H   0.817144678  -0.188414478   1.446349266
|717> H  -0.201655322   0.874185522   1.764849266
|718> O  -0.289755322   1.893185522  -0.270350734
|719> H  -0.205355322   2.744385522  -0.716750734
|720> H   0.531644678   1.403485522  -0.480550734
|721> O   0.239344678  -1.876514478  -1.663150734
|722> H  -0.582055322  -1.513414478  -1.247450734
|723> H   0.258844678  -2.803614478  -1.394250734
|724> *
|725> 
|726> 
|727> $new_job
|728> 
|729> # 5h2o.temelso.etal.dset.3h2o.dset-orca.engrad-mp2.def2tzvp
|730> ! MP2 def2-TZVP EnGrad TightSCF FrozenCore
|731> 
|732> %pal
|733>     nprocs 12
|734> end
|735> 
|736> %maxcore 8000
|737> 
|738> %scf
|739>     ConvForced true
|740> end
|741> 
|742> *xyz 0 1
|743> O   1.812959739  -0.438350372  -0.086884478
|744> H   1.394359739  -1.178350372  -0.594384478
|745> H   2.729959739  -0.407650372  -0.385284478
|746> O  -1.685840261  -1.067150372   0.082715522
|747> H  -1.246140261  -1.082350372   0.956415522
|748> H  -1.581040261  -0.131250372  -0.160484478
|749> O  -0.236140261   1.473449628   0.050715522
|750> H  -0.151740261   2.324649628  -0.395684478
|751> H   0.585259739   0.983749628  -0.159484478
|752> *
|753> 
|754> 
|755> $new_job
|756> 
|757> # 5h2o.temelso.etal.dset.3h2o.dset-orca.engrad-mp2.def2tzvp
|758> ! MP2 def2-TZVP EnGrad TightSCF FrozenCore
|759> 
|760> %pal
|761>     nprocs 12
|762> end
|763> 
|764> %maxcore 8000
|765> 
|766> %scf
|767>     ConvForced true
|768> end
|769> 
|770> *xyz 0 1
|771> O   1.668439054   0.835475448   0.352370869
|772> H   1.249839054   0.095475448  -0.155129131
|773> H   2.585439054   0.866175448   0.053970869
|774> O  -1.830360946   0.206675448   0.521970869
|775> H  -1.390660946   0.191475448   1.395670869
|776> H  -1.725560946   1.142575448   0.278770869
|777> O   0.148439054  -1.022424552  -0.902829131
|778> H  -0.672960946  -0.659324552  -0.487129131
|779> H   0.167939054  -1.949524552  -0.633929131
|780> *
|781> 
|782> 
|783> $new_job
|784> 
|785> # 5h2o.temelso.etal.dset.3h2o.dset-orca.engrad-mp2.def2tzvp
|786> ! MP2 def2-TZVP EnGrad TightSCF FrozenCore
|787> 
|788> %pal
|789>     nprocs 12
|790> end
|791> 
|792> %maxcore 8000
|793> 
|794> %scf
|795>     ConvForced true
|796> end
|797> 
|798> *xyz 0 1
|799> O   1.178468030  -0.000962997   0.387039973
|800> H   0.759868030  -0.740962997  -0.120460027
|801> H   2.095468030   0.029737003   0.088639973
|802> O  -0.870631970   1.910837003   0.524639973
|803> H  -0.786231970   2.762037003   0.078239973
|804> H  -0.049231970   1.421137003   0.314439973
|805> O  -0.341531970  -1.858862997  -0.868160027
|806> H  -1.162931970  -1.495762997  -0.452460027
|807> H  -0.322031970  -2.785962997  -0.599260027
|808> *
|809> 
|810> 
|811> $new_job
|812> 
|813> # 5h2o.temelso.etal.dset.3h2o.dset-orca.engrad-mp2.def2tzvp
|814> ! MP2 def2-TZVP EnGrad TightSCF FrozenCore
|815> 
|816> %pal
|817>     nprocs 12
|818> end
|819> 
|820> %maxcore 8000
|821> 
|822> %scf
|823>     ConvForced true
|824> end
|825> 
|826> *xyz 0 1
|827> O  -1.154924997  -0.450559993   0.473319987
|828> H  -0.715224997  -0.465759993   1.347019987
|829> H  -1.050124997   0.485340007   0.230119987
|830> O   0.294775003   2.090040007   0.441319987
|831> H   0.379175003   2.941240007  -0.005080013
|832> H   1.116175003   1.600340007   0.231119987
|833> O   0.823875003  -1.679659993  -0.951480013
|834> H   0.002475003  -1.316559993  -0.535780013
|835> H   0.843375003  -2.606759993  -0.682580013
|836> *
|837> 
|838> 
|839> $new_job
|840> 
|841> # 5h2o.temelso.etal.dset.3h2o.dset-orca.engrad-mp2.def2tzvp
|842> ! MP2 def2-TZVP EnGrad TightSCF FrozenCore
|843> 
|844> %pal
|845>     nprocs 12
|846> end
|847> 
|848> %maxcore 8000
|849> 
|850> %scf
|851>     ConvForced true
|852> end
|853> 
|854> *xyz 0 1
|855> O  -0.499702668  -1.354351348  -0.912103162
|856> H  -0.616302668  -1.145251348   0.035796838
|857> H  -0.546102668  -2.316251348  -0.974803162
|858> O  -0.716802668   0.283048652   1.307696838
|859> H   0.044897332   0.720748652   0.849096838
|860> H  -0.545302668   0.371848652   2.252696838
|861> O   1.203397332   1.092248652  -0.412103162
|862> H   1.091597332   0.269748652  -0.914403162
|863> H   0.779297332   1.766648652  -0.986303162
|864> *
|865> 
|866> 
|867> $new_job
|868> 
|869> # 5h2o.temelso.etal.dset.3h2o.dset-orca.engrad-mp2.def2tzvp
|870> ! MP2 def2-TZVP EnGrad TightSCF FrozenCore
|871> 
|872> %pal
|873>     nprocs 12
|874> end
|875> 
|876> %maxcore 8000
|877> 
|878> %scf
|879>     ConvForced true
|880> end
|881> 
|882> *xyz 0 1
|883> O   0.052241033  -1.900689656  -0.408892125
|884> H  -0.064358967  -1.691589656   0.539007875
|885> H   0.005841033  -2.862589656  -0.471592125
|886> O  -0.164858967  -0.263289656   1.810907875
|887> H   0.596841033   0.174410344   1.352307875
|888> H   0.006641033  -0.174489656   2.755907875
|889> O   0.113541033   2.204310344  -1.437692125
|890> H  -0.673158967   1.660710344  -1.207992125
|891> H   0.113541033   2.253310344  -2.401292125
|892> *
|893> 
|894> 
|895> $new_job
|896> 
|897> # 5h2o.temelso.etal.dset.3h2o.dset-orca.engrad-mp2.def2tzvp
|898> ! MP2 def2-TZVP EnGrad TightSCF FrozenCore
|899> 
|900> %pal
|901>     nprocs 12
|902> end
|903> 
|904> %maxcore 8000
|905> 
|906> %scf
|907>     ConvForced true
|908> end
|909> 
|910> *xyz 0 1
|911> O   0.662794269  -1.284137528  -0.725690202
|912> H   0.546194269  -1.075037528   0.222209798
|913> H   0.616394269  -2.246037528  -0.788390202
|914> O   0.445694269   0.353262472   1.494109798
|915> H   1.207394269   0.790962472   1.035509798
|916> H   0.617194269   0.442062472   2.439109798
|917> O  -1.184305731   0.989662472  -0.884590202
|918> H  -1.037905731   0.995262472   0.076509798
|919> H  -0.745705731   0.159562472  -1.140790202
|920> *
|921> 
|922> 
|923> $new_job
|924> 
|925> # 5h2o.temelso.etal.dset.3h2o.dset-orca.engrad-mp2.def2tzvp
|926> ! MP2 def2-TZVP EnGrad TightSCF FrozenCore
|927> 
|928> %pal
|929>     nprocs 12
|930> end
|931> 
|932> %maxcore 8000
|933> 
|934> %scf
|935>     ConvForced true
|936> end
|937> 
|938> *xyz 0 1
|939> O  -0.560429176  -2.157842735   0.193520225
|940> H  -0.677029176  -1.948742735   1.141420225
|941> H  -0.606829176  -3.119742735   0.130820225
|942> O   1.142670824   0.288757265   0.693520225
|943> H   1.030870824  -0.533742735   0.191220225
|944> H   0.718570824   0.963157265   0.119320225
|945> O  -0.499129176   1.947157265  -0.835279775
|946> H  -1.285829176   1.403557265  -0.605579775
|947> H  -0.499129176   1.996157265  -1.798879775
|948> *
|949> 
|950> 
|951> $new_job
|952> 
|953> # 5h2o.temelso.etal.dset.3h2o.dset-orca.engrad-mp2.def2tzvp
|954> ! MP2 def2-TZVP EnGrad TightSCF FrozenCore
|955> 
|956> %pal
|957>     nprocs 12
|958> end
|959> 
|960> %maxcore 8000
|961> 
|962> %scf
|963>     ConvForced true
|964> end
|965> 
|966> *xyz 0 1
|967> O   0.050124060  -1.541290607  -0.123277851
|968> H  -0.066475940  -1.332190607   0.824622149
|969> H   0.003724060  -2.503190607  -0.185977851
|970> O   1.753224060   0.905309393   0.376722149
|971> H   1.641424060   0.082809393  -0.125577851
|972> H   1.329124060   1.579709393  -0.197477851
|973> O  -1.796975940   0.732509393  -0.282177851
|974> H  -1.650575940   0.738109393   0.678922149
|975> H  -1.358375940  -0.097590607  -0.538377851
|976> *
|977> 
|978> 
|979> $new_job
|980> 
|981> # 5h2o.temelso.etal.dset.3h2o.dset-orca.engrad-mp2.def2tzvp
|982> ! MP2 def2-TZVP EnGrad TightSCF FrozenCore
|983> 
|984> %pal
|985>     nprocs 12
|986> end
|987> 
|988> %maxcore 8000
|989> 
|990> %scf
|991>     ConvForced true
|992> end
|993> 
|994> *xyz 0 1
|995> O   0.602067761  -2.087628915   0.379933185
|996> H   0.485467761  -1.878528915   1.327833185
|997> H   0.555667761  -3.049528915   0.317233185
|998> O   0.663367761   2.017371085  -0.648866815
|999> H  -0.123332239   1.473771085  -0.419166815
|1000> H   0.663367761   2.066371085  -1.612466815
|1001> O  -1.245032239   0.186171085   0.221033185
|1002> H  -1.098632239   0.191771085   1.182133185
|1003> H  -0.806432239  -0.643928915  -0.035166815
|1004> *
|1005> 
|1006> 
|1007> $new_job
|1008> 
|1009> # 5h2o.temelso.etal.dset.3h2o.dset-orca.engrad-mp2.def2tzvp
|1010> ! MP2 def2-TZVP EnGrad TightSCF FrozenCore
|1011> 
|1012> %pal
|1013>     nprocs 12
|1014> end
|1015> 
|1016> %maxcore 8000
|1017> 
|1018> %scf
|1019>     ConvForced true
|1020> end
|1021> 
|1022> *xyz 0 1
|1023> O  -0.725604955  -1.090099715   1.680823899
|1024> H   0.036095045  -0.652399715   1.222223899
|1025> H  -0.554104955  -1.001299715   2.625823899
|1026> O   1.194595045  -0.280899715  -0.038976101
|1027> H   1.082795045  -1.103399715  -0.541276101
|1028> H   0.770495045   0.393500285  -0.613176101
|1029> O  -0.447204955   1.377500285  -1.567776101
|1030> H  -1.233904955   0.833900285  -1.338076101
|1031> H  -0.447204955   1.426500285  -2.531376101
|1032> *
|1033> 
|1034> 
|1035> $new_job
|1036> 
|1037> # 5h2o.temelso.etal.dset.3h2o.dset-orca.engrad-mp2.def2tzvp
|1038> ! MP2 def2-TZVP EnGrad TightSCF FrozenCore
|1039> 
|1040> %pal
|1041>     nprocs 12
|1042> end
|1043> 
|1044> %maxcore 8000
|1045> 
|1046> %scf
|1047>     ConvForced true
|1048> end
|1049> 
|1050> *xyz 0 1
|1051> O  -0.115051719  -0.473547587   1.364025823
|1052> H   0.646648281  -0.035847587   0.905425823
|1053> H   0.056448281  -0.384747587   2.309025823
|1054> O   1.805148281   0.335652413  -0.355774177
|1055> H   1.693348281  -0.486847587  -0.858074177
|1056> H   1.381048281   1.010052413  -0.929974177
|1057> O  -1.745051719   0.162852413  -1.014674177
|1058> H  -1.598651719   0.168452413  -0.053574177
|1059> H  -1.306451719  -0.667247587  -1.270874177
|1060> *
|1061> 
|1062> 
|1063> $new_job
|1064> 
|1065> # 5h2o.temelso.etal.dset.3h2o.dset-orca.engrad-mp2.def2tzvp
|1066> ! MP2 def2-TZVP EnGrad TightSCF FrozenCore
|1067> 
|1068> %pal
|1069>     nprocs 12
|1070> end
|1071> 
|1072> %maxcore 8000
|1073> 
|1074> %scf
|1075>     ConvForced true
|1076> end
|1077> 
|1078> *xyz 0 1
|1079> O   0.436891982  -1.019885894   1.867236859
|1080> H   1.198591982  -0.582185894   1.408636859
|1081> H   0.608391982  -0.931085894   2.812236859
|1082> O   0.715291982   1.447714106  -1.381363141
|1083> H  -0.071408018   0.904114106  -1.151663141
|1084> H   0.715291982   1.496714106  -2.344963141
|1085> O  -1.193108018  -0.383485894  -0.511463141
|1086> H  -1.046708018  -0.377885894   0.449636859
|1087> H  -0.754508018  -1.213585894  -0.767663141
|1088> *
|1089> 
|1090> 
|1091> $new_job
|1092> 
|1093> # 5h2o.temelso.etal.dset.3h2o.dset-orca.engrad-mp2.def2tzvp
|1094> ! MP2 def2-TZVP EnGrad TightSCF FrozenCore
|1095> 
|1096> %pal
|1097>     nprocs 12
|1098> end
|1099> 
|1100> %maxcore 8000
|1101> 
|1102> %scf
|1103>     ConvForced true
|1104> end
|1105> 
|1106> *xyz 0 1
|1107> O   1.744421774  -0.467838974   0.749849210
|1108> H   1.632621774  -1.290338974   0.247549210
|1109> H   1.320321774   0.206561026   0.175649210
|1110> O   0.102621774   1.190561026  -0.778950790
|1111> H  -0.684078226   0.646961026  -0.549250790
|1112> H   0.102621774   1.239561026  -1.742550790
|1113> O  -1.805778226  -0.640638974   0.090949210
|1114> H  -1.659378226  -0.635038974   1.052049210
|1115> H  -1.367178226  -1.470738974  -0.165250790
|1116> *
|1117> 
|1118> 
|1119> $new_job
|1120> 
|1121> # 5h2o.temelso.etal.dset.3h2o.dset-orca.engrad-mp2.def2tzvp
|1122> ! MP2 def2-TZVP EnGrad TightSCF FrozenCore
|1123> 
|1124> %pal
|1125>     nprocs 12
|1126> end
|1127> 
|1128> %maxcore 8000
|1129> 
|1130> %scf
|1131>     ConvForced true
|1132> end
|1133> 
|1134> *xyz 0 1
|1135> O   1.829163799   0.607905187   0.390667852
|1136> H   1.327863799  -0.058494813  -0.132832148
|1137> H   2.747063799   0.518805187   0.106667852
|1138> O   0.041063799  -1.089594813  -0.844132148
|1139> H  -0.747236201  -0.600194813  -0.522832148
|1140> H  -0.045936201  -1.967294813  -0.451232148
|1141> O  -1.820436201   0.547705187   0.397367852
|1142> H  -2.742636201   0.402505187   0.641067852
|1143> H  -1.329536201   0.656705187   1.249667852
|1144> *
|1145> 
|1146> 
|1147> $new_job
|1148> 
|1149> # 5h2o.temelso.etal.dset.3h2o.dset-orca.engrad-mp2.def2tzvp
|1150> ! MP2 def2-TZVP EnGrad TightSCF FrozenCore
|1151> 
|1152> %pal
|1153>     nprocs 12
|1154> end
|1155> 
|1156> %maxcore 8000
|1157> 
|1158> %scf
|1159>     ConvForced true
|1160> end
|1161> 
|1162> *xyz 0 1
|1163> O   1.249958315   0.390149006  -0.265064445
|1164> H   0.748658315  -0.276250994  -0.788564445
|1165> H   2.167858315   0.301049006  -0.549064445
|1166> O  -0.538141685  -1.307350994  -1.499864445
|1167> H  -1.326441685  -0.817950994  -1.178564445
|1168> H  -0.625141685  -2.185050994  -1.106964445
|1169> O  -0.736141685   0.953449006   1.809735555
|1170> H  -0.678141685   1.842249006   1.408935555
|1171> H   0.099358315   0.560549006   1.502935555
|1172> *
|1173> 
|1174> 
|1175> $new_job
|1176> 
|1177> # 5h2o.temelso.etal.dset.3h2o.dset-orca.engrad-mp2.def2tzvp
|1178> ! MP2 def2-TZVP EnGrad TightSCF FrozenCore
|1179> 
|1180> %pal
|1181>     nprocs 12
|1182> end
|1183> 
|1184> %maxcore 8000
|1185> 
|1186> %scf
|1187>     ConvForced true
|1188> end
|1189> 
|1190> *xyz 0 1
|1191> O   1.201109073  -0.181144452   0.476289774
|1192> H   0.699809073  -0.847544452  -0.047210226
|1193> H   2.119009073  -0.270244452   0.192289774
|1194> O  -0.586990927  -1.878644452  -0.758510226
|1195> H  -1.375290927  -1.389244452  -0.437210226
|1196> H  -0.673990927  -2.756344452  -0.365610226
|1197> O  -0.587090927   2.185755548   0.315289774
|1198> H  -1.351790927   1.687555548  -0.014010226
|1199> H   0.153209073   1.576155548   0.146789774
|1200> *
|1201> 
|1202> 
|1203> $new_job
|1204> 
|1205> # 5h2o.temelso.etal.dset.3h2o.dset-orca.engrad-mp2.def2tzvp
|1206> ! MP2 def2-TZVP EnGrad TightSCF FrozenCore
|1207> 
|1208> %pal
|1209>     nprocs 12
|1210> end
|1211> 
[...]
                     * LOEWDIN POPULATION ANALYSIS *
                     *******************************

----------------------
LOEWDIN ATOMIC CHARGES
----------------------
   0 O :   -0.355138
   1 H :    0.152681
   2 H :    0.152957
   3 O :   -0.295108
   4 H :    0.163268
   5 H :    0.176113
   6 O :   -0.318504
   7 H :    0.160726
   8 H :    0.163005

-------------------------------
LOEWDIN REDUCED ORBITAL CHARGES
-------------------------------
  0 O s       :     3.465304  s :     3.465304
      pz      :     1.621633  p :     4.827030
      px      :     1.386467
      py      :     1.818930
      dz2     :     0.008349  d :     0.058066
      dxz     :     0.020844
      dyz     :     0.010244
      dx2y2   :     0.011071
      dxy     :     0.007558
      f0      :     0.000545  f :     0.004738
      f+1     :     0.000789
      f-1     :     0.000546
      f+2     :     0.000806
      f-2     :     0.000850
      f+3     :     0.000673
      f-3     :     0.000529
  1 H s       :     0.680904  s :     0.680904
      pz      :     0.066573  p :     0.166415
      px      :     0.047495
      py      :     0.052348
  2 H s       :     0.651789  s :     0.651789
      pz      :     0.043121  p :     0.195254
      px      :     0.112609
      py      :     0.039523
  3 O s       :     3.456868  s :     3.456868
      pz      :     1.652777  p :     4.773385
      px      :     1.792989
      py      :     1.327620
      dz2     :     0.009570  d :     0.060041
      dxz     :     0.007426
      dyz     :     0.022175
      dx2y2   :     0.012339
      dxy     :     0.008531
      f0      :     0.000596  f :     0.004812
      f+1     :     0.000453
      f-1     :     0.000854
      f+2     :     0.000905
      f-2     :     0.000691
      f+3     :     0.000666
      f-3     :     0.000647
  4 H s       :     0.663802  s :     0.663802
      pz      :     0.072889  p :     0.172930
      px      :     0.045077
      py      :     0.054964
  5 H s       :     0.665718  s :     0.665718
      pz      :     0.042674  p :     0.158169
      px      :     0.045603
      py      :     0.069891
  6 O s       :     3.455690  s :     3.455690
      pz      :     1.845614  p :     4.798517
      px      :     1.564336
      py      :     1.388568
      dz2     :     0.009739  d :     0.059410
      dxz     :     0.008505
      dyz     :     0.009420
      dx2y2   :     0.022089
      dxy     :     0.009658
      f0      :     0.000591  f :     0.004887
      f+1     :     0.000541
      f-1     :     0.000684
      f+2     :     0.000767
      f-2     :     0.000493
      f+3     :     0.000511
      f-3     :     0.001300
  7 H s       :     0.674652  s :     0.674652
      pz      :     0.048618  p :     0.164622
      px      :     0.033980
      py      :     0.082024
  8 H s       :     0.666758  s :     0.666758
      pz      :     0.047648  p :     0.170237
      px      :     0.085982
      py      :     0.036607


                      *****************************
                      * MAYER POPULATION ANALYSIS *
                      *****************************

  NA   - Mulliken gross atomic population
  ZA   - Total nuclear charge
  QA   - Mulliken gross atomic charge
  VA   - Mayer's total valence
  BVA  - Mayer's bonded valence
  FA   - Mayer's free valence

  ATOM       NA         ZA         QA         VA         BVA        FA
  0 O      8.7599     8.0000    -0.7599     2.0134     1.6187     0.3947
  1 H      0.6595     1.0000     0.3405     0.9047     0.8570     0.0477
  2 H      0.6051     1.0000     0.3949     0.8824     0.8362     0.0462
  3 O      8.7298     8.0000    -0.7298     2.0618     1.6718     0.3900
  4 H      0.6077     1.0000     0.3923     0.8789     0.8348     0.0441
  5 H      0.6374     1.0000     0.3626     0.8854     0.8386     0.0468
  6 O      8.7359     8.0000    -0.7359     2.0569     1.6684     0.3885
  7 H      0.6510     1.0000     0.3490     0.8977     0.8511     0.0467
  8 H      0.6137     1.0000     0.3863     0.8840     0.8393     0.0447

  Mayer bond orders larger than 0.100000
B(  0-O ,  1-H ) :   0.8488 B(  0-O ,  2-H ) :   0.7626 B(  3-O ,  4-H ) :   0.7963 
B(  3-O ,  5-H ) :   0.8330 B(  6-O ,  7-H ) :   0.8443 B(  6-O ,  8-H ) :   0.8003 



                *******************************************
                * RELAXED MP2 DENSITY POPULATION ANALYSIS *
                *******************************************

------------------------------------------------------------------------------
                           ORCA POPULATION ANALYSIS
------------------------------------------------------------------------------
Input electron density              ... 5h2o.temelso.etal.dset.3h2o.dset-orca.engrad-mp2.def2tzvp_job70.pmp2re
BaseName (.gbw .S,...)              ... 5h2o.temelso.etal.dset.3h2o.dset-orca.engrad-mp2.def2tzvp_job70

                    ********************************
                    * MULLIKEN POPULATION ANALYSIS *
                    ********************************

-----------------------
MULLIKEN ATOMIC CHARGES
-----------------------
   0 O :   -0.735689
   1 H :    0.334266
   2 H :    0.372330
   3 O :   -0.703263
   4 H :    0.376235
   5 H :    0.357041
   6 O :   -0.714199
   7 H :    0.343028
   8 H :    0.370249
Sum of atomic charges:    0.0000000

--------------------------------
MULLIKEN REDUCED ORBITAL CHARGES
--------------------------------
  0 O s       :     3.810670  s :     3.810670
      pz      :     1.597671  p :     4.872100
      px      :     1.408245
      py      :     1.866185
      dz2     :     0.008824  d :     0.048998
      dxz     :     0.015251
      dyz     :     0.009695
      dx2y2   :     0.008635
      dxy     :     0.006592
      f0      :     0.000420  f :     0.003921
      f+1     :     0.000508
      f-1     :     0.000480
      f+2     :     0.000660
      f-2     :     0.000641
      f+3     :     0.000649
      f-3     :     0.000563
  1 H s       :     0.617790  s :     0.617790
      pz      :     0.016139  p :     0.047943
      px      :     0.014203
      py      :     0.017601
  2 H s       :     0.570619  s :     0.570619
      pz      :     0.012558  p :     0.057051
      px      :     0.030537
      py      :     0.013957
  3 O s       :     3.794723  s :     3.794723
      pz      :     1.670783  p :     4.854089
      px      :     1.848991
      py      :     1.334315
      dz2     :     0.009594  d :     0.050551
      dxz     :     0.008729
      dyz     :     0.016377
      dx2y2   :     0.008557
      dxy     :     0.007295
      f0      :     0.000451  f :     0.003900
      f+1     :     0.000432
      f-1     :     0.000576
      f+2     :     0.000727
      f-2     :     0.000522
      f+3     :     0.000578
      f-3     :     0.000615
  4 H s       :     0.575056  s :     0.575056
      pz      :     0.018948  p :     0.048709
      px      :     0.013927
      py      :     0.015835
  5 H s       :     0.597961  s :     0.597961
      pz      :     0.013242  p :     0.044997
      px      :     0.015236
      py      :     0.016520
  6 O s       :     3.806249  s :     3.806249
      pz      :     1.906303  p :     4.854222
      px      :     1.563307
      py      :     1.384612
      dz2     :     0.008823  d :     0.049760
      dxz     :     0.008999
      dyz     :     0.008695
      dx2y2   :     0.015224
      dxy     :     0.008019
      f0      :     0.000615  f :     0.003968
      f+1     :     0.000543
      f-1     :     0.000622
      f+2     :     0.000546
      f-2     :     0.000428
      f+3     :     0.000374
      f-3     :     0.000840
  7 H s       :     0.609434  s :     0.609434
      pz      :     0.016849  p :     0.047538
      px      :     0.012524
      py      :     0.018165
  8 H s       :     0.581335  s :     0.581335
      pz      :     0.015780  p :     0.048416
      px      :     0.019991
      py      :     0.012645


                     *******************************
                     * LOEWDIN POPULATION ANALYSIS *
                     *******************************

----------------------
LOEWDIN ATOMIC CHARGES
----------------------
   0 O :   -0.353087
   1 H :    0.154657
   2 H :    0.145172
   3 O :   -0.289065
   4 H :    0.158716
   5 H :    0.178010
   6 O :   -0.315980
   7 H :    0.162685
   8 H :    0.158892

-------------------------------
LOEWDIN REDUCED ORBITAL CHARGES
-------------------------------
  0 O s       :     3.467081  s :     3.467081
      pz      :     1.619143  p :     4.823884
      px      :     1.390464
      py      :     1.814277
      dz2     :     0.008345  d :     0.057347
      dxz     :     0.020262
      dyz     :     0.010166
      dx2y2   :     0.011068
      dxy     :     0.007506
      f0      :     0.000549  f :     0.004775
      f+1     :     0.000789
      f-1     :     0.000546
      f+2     :     0.000818
      f-2     :     0.000854
      f+3     :     0.000685
      f-3     :     0.000534
  1 H s       :     0.678803  s :     0.678803
      pz      :     0.066530  p :     0.166540
      px      :     0.047128
      py      :     0.052881
  2 H s       :     0.659000  s :     0.659000
      pz      :     0.043464  p :     0.195828
      px      :     0.112032
      py      :     0.040332
  3 O s       :     3.458224  s :     3.458224
      pz      :     1.652923  p :     4.766802
      px      :     1.780517
      py      :     1.333362
      dz2     :     0.009597  d :     0.059205
      dxz     :     0.007521
      dyz     :     0.021442
      dx2y2   :     0.012217
      dxy     :     0.008428
      f0      :     0.000595  f :     0.004833
      f+1     :     0.000455
      f-1     :     0.000856
      f+2     :     0.000912
      f-2     :     0.000691
      f+3     :     0.000672
      f-3     :     0.000653
  4 H s       :     0.667865  s :     0.667865
      pz      :     0.072986  p :     0.173418
      px      :     0.045845
      py      :     0.054587
  5 H s       :     0.663828  s :     0.663828
      pz      :     0.043293  p :     0.158162
      px      :     0.046296
      py      :     0.068573
  6 O s       :     3.457093  s :     3.457093
      pz      :     1.840562  p :     4.795692
      px      :     1.563642
      py      :     1.391487
      dz2     :     0.009670  d :     0.058294
      dxz     :     0.008548
      dyz     :     0.009341
      dx2y2   :     0.021293
      dxy     :     0.009442
      f0      :     0.000594  f :     0.004902
      f+1     :     0.000544
      f-1     :     0.000689
      f+2     :     0.000766
      f-2     :     0.000494
      f+3     :     0.000506
      f-3     :     0.001309
  7 H s       :     0.672660  s :     0.672660
      pz      :     0.049452  p :     0.164655
      px      :     0.034405
      py      :     0.080798
  8 H s       :     0.670403  s :     0.670403
      pz      :     0.048642  p :     0.170705
      px      :     0.085551
      py      :     0.036513


                      *****************************
                      * MAYER POPULATION ANALYSIS *
                      *****************************

  NA   - Mulliken gross atomic population
  ZA   - Total nuclear charge
  QA   - Mulliken gross atomic charge
  VA   - Mayer's total valence
  BVA  - Mayer's bonded valence
  FA   - Mayer's free valence

  ATOM       NA         ZA         QA         VA         BVA        FA
  0 O      8.7357     8.0000    -0.7357     2.0348     1.6458     0.3890
  1 H      0.6657     1.0000     0.3343     0.9092     0.8614     0.0478
  2 H      0.6277     1.0000     0.3723     0.9086     0.8633     0.0454
  3 O      8.7033     8.0000    -0.7033     2.0944     1.7104     0.3840
  4 H      0.6238     1.0000     0.3762     0.9001     0.8565     0.0435
  5 H      0.6430     1.0000     0.3570     0.8890     0.8421     0.0469
  6 O      8.7142     8.0000    -0.7142     2.0800     1.6972     0.3828
  7 H      0.6570     1.0000     0.3430     0.9022     0.8555     0.0467
  8 H      0.6298     1.0000     0.3702     0.9053     0.8612     0.0441

  Mayer bond orders larger than 0.100000
B(  0-O ,  1-H ) :   0.8517 B(  0-O ,  2-H ) :   0.7628 B(  3-O ,  4-H ) :   0.7991 
B(  3-O ,  5-H ) :   0.8360 B(  6-O ,  7-H ) :   0.8475 B(  6-O ,  8-H ) :   0.8029 



----------------------------------
MP2 DERIVATIVE INTEGRAL GENERATION
----------------------------------


Input Wavefunction Amplitudes       ... 5h2o.temelso.etal.dset.3h2o.dset-orca.engrad-mp2.def2tzvp_job70.mp2tsaa.tmp
Input Correlated Electron Density   ... 5h2o.temelso.etal.dset.3h2o.dset-orca.engrad-mp2.def2tzvp_job70.pmp2re
Input Energy Weighted Density       ... 5h2o.temelso.etal.dset.3h2o.dset-orca.engrad-mp2.def2tzvp_job70.wmp2.tmp
Input SCF Electron Density          ... 5h2o.temelso.etal.dset.3h2o.dset-orca.engrad-mp2.def2tzvp_job70.scfp

One-Electron Terms    ...
                        ... One-Electron Terms done
Prescreening matrices              ... done

Batch handling in the gradient evaluation:
Memory available                      ... 8000.0 MB
Memory per occupied orbital in Q2     ...    1.5 MB
Memory per occupied orbital in Q3     ...    0.0 MB
Total memory requirement per |i>      ...    1.6 MB
Max. Number of orbitals possible      ...   5089
Number of orbitals treated per batch  ...     12
Number of batches to be done          ...      1
Batch   0: i=    3 ...    14

---------------------------------------
MP2 TOTAL ENERGY:     -228.964160515 Eh
---------------------------------------

The final MP2 gradient
  0:  -0.00829020  -0.00366257  -0.00386155
  1:  -0.00200076   0.00199126   0.00200194
  2:   0.01449136  -0.00044442   0.00289676
  3:  -0.00758437   0.01515147   0.00683214
  4:   0.00053456  -0.00002280   0.00093604
  5:   0.00198917  -0.01510648  -0.00647056
  6:   0.00124546  -0.00145021  -0.00409713
  7:  -0.00076790   0.00234672   0.00183477
  8:   0.00038268   0.00119705  -0.00007239

-----------------------------------
NORM OF THE MP2 GRADIENT:  0.031114
-----------------------------------

-------------------------   --------------------
FINAL SINGLE POINT ENERGY      -228.964160515445
-------------------------   --------------------


                            ***************************************
                            *     ORCA property calculations      *
                            ***************************************

                                    ---------------------
                                    Active property flags
                                    ---------------------
   (+) Dipole Moment


------------------------------------------------------------------------------
                       ORCA ELECTRIC PROPERTIES CALCULATION
------------------------------------------------------------------------------

Dipole Moment Calculation                       ... on
Quadrupole Moment Calculation                   ... off
Polarizability Calculation                      ... off
GBWName                                         ... 5h2o.temelso.etal.dset.3h2o.dset-orca.engrad-mp2.def2tzvp_job70.gbw
Electron density file                           ... 5h2o.temelso.etal.dset.3h2o.dset-orca.engrad-mp2.def2tzvp_job70.scfp
The origin for moment calculation is the CENTER OF MASS  = (-0.000001,  0.000003  0.000002)

-------------
DIPOLE MOMENT
-------------
                                X             Y             Z
Electronic contribution:      0.17986      -0.07478      -0.04384
Nuclear contribution   :     -0.13260       0.47744       0.40295
                        -----------------------------------------
Total Dipole Moment    :      0.04727       0.40266       0.35911
                        -----------------------------------------
Magnitude (a.u.)       :      0.54160
Magnitude (Debye)      :      1.37663



--------------------
Rotational spectrum 
--------------------
 
Rotational constants in cm-1:     0.253087     0.198650     0.114365 
Rotational constants in MHz :  7587.371376  5955.368142  3428.586665 

 Dipole components along the rotational axes: 
x,y,z [a.u.] :     0.044192     0.070876     0.535119 
x,y,z [Debye]:     0.112328     0.180152     1.360163 

 

                         *** MP2 UNRELAXED DENSITY ***

------------------------------------------------------------------------------
                       ORCA ELECTRIC PROPERTIES CALCULATION
------------------------------------------------------------------------------

Dipole Moment Calculation                       ... on
Quadrupole Moment Calculation                   ... off
Polarizability Calculation                      ... off
GBWName                                         ... 5h2o.temelso.etal.dset.3h2o.dset-orca.engrad-mp2.def2tzvp_job70.gbw
Electron density file                           ... 5h2o.temelso.etal.dset.3h2o.dset-orca.engrad-mp2.def2tzvp_job70.pmp2ur
The origin for moment calculation is the CENTER OF MASS  = (-0.000001,  0.000003  0.000002)

-------------
DIPOLE MOMENT
-------------
                                X             Y             Z
Electronic contribution:      0.18233      -0.07962      -0.04759
Nuclear contribution   :     -0.13260       0.47744       0.40295
                        -----------------------------------------
Total Dipole Moment    :      0.04973       0.39782       0.35535
                        -----------------------------------------
Magnitude (a.u.)       :      0.53573
Magnitude (Debye)      :      1.36172



--------------------
Rotational spectrum 
--------------------
 
Rotational constants in cm-1:     0.253087     0.198650     0.114365 
Rotational constants in MHz :  7587.371376  5955.368142  3428.586665 

 Dipole components along the rotational axes: 
x,y,z [a.u.] :     0.044375     0.073018     0.528873 
x,y,z [Debye]:     0.112793     0.185598     1.344288 

 

                           *** MP2 RELAXED DENSITY ***

------------------------------------------------------------------------------
                       ORCA ELECTRIC PROPERTIES CALCULATION
------------------------------------------------------------------------------

Dipole Moment Calculation                       ... on
Quadrupole Moment Calculation                   ... off
Polarizability Calculation                      ... off
GBWName                                         ... 5h2o.temelso.etal.dset.3h2o.dset-orca.engrad-mp2.def2tzvp_job70.gbw
Electron density file                           ... 5h2o.temelso.etal.dset.3h2o.dset-orca.engrad-mp2.def2tzvp_job70.pmp2re
The origin for moment calculation is the CENTER OF MASS  = (-0.000001,  0.000003  0.000002)

-------------
DIPOLE MOMENT
-------------
                                X             Y             Z
Electronic contribution:      0.18593      -0.08656      -0.04906
Nuclear contribution   :     -0.13260       0.47744       0.40295
                        -----------------------------------------
Total Dipole Moment    :      0.05334       0.39089       0.35388
                        -----------------------------------------
Magnitude (a.u.)       :      0.52997
Magnitude (Debye)      :      1.34708



--------------------
Rotational spectrum 
--------------------
 
Rotational constants in cm-1:     0.253087     0.198650     0.114365 
Rotational constants in MHz :  7587.371376  5955.368142  3428.586665 

 Dipole components along the rotational axes: 
x,y,z [a.u.] :     0.042078     0.077337     0.522606 
x,y,z [Debye]:     0.106953     0.196575     1.328358 

 

Timings for individual modules:

Sum of individual times         ...        8.479 sec (=   0.141 min)
GTO integral calculation        ...        0.860 sec (=   0.014 min)  10.1 %
SCF iterations                  ...        3.328 sec (=   0.055 min)  39.3 %
MP2 module                      ...        4.291 sec (=   0.072 min)  50.6 %



                             ****ORCA TERMINATED NORMALLY****
TOTAL RUN TIME: 0 days 0 hours 10 minutes 4 seconds 5 msec
