
                                 *****************
                                 * O   R   C   A *
                                 *****************

           --- An Ab Initio, DFT and Semiempirical electronic structure package ---

                  #######################################################
                  #                        -***-                        #
                  #          Department of theory and spectroscopy      #
                  #               Directorship: Frank Neese             #
                  #        Max Planck Institute fuer Kohlenforschung    #
                  #                Kaiser Wilhelm Platz 1               #
                  #                 D-45470 Muelheim/Ruhr               #
                  #                      Germany                        #
                  #                                                     #
                  #                  All rights reserved                #
                  #                        -***-                        #
                  #######################################################


                         Program Version 4.2.0 -  RELEASE  -


 With contributions from (in alphabetic order):
   Daniel Aravena         : Magnetic Suceptibility
   Michael Atanasov       : Ab Initio Ligand Field Theory (pilot matlab implementation)
   Alexander A. Auer      : GIAO ZORA, VPT2
   Ute Becker             : Parallelization
   Giovanni Bistoni       : ED, misc. LED, open-shell LED, HFLED
   Martin Brehm           : Molecular dynamics
   Dmytro Bykov           : SCF Hessian
   Vijay G. Chilkuri      : MRCI spin determinant printing, contributions to CSF-ICE
   Dipayan Datta          : RHF DLPNO-CCSD density
   Achintya Kumar Dutta   : EOM-CC, STEOM-CC
   Dmitry Ganyushin       : Spin-Orbit,Spin-Spin,Magnetic field MRCI
   Miquel Garcia          : C-PCM Hessian, Gaussian charge scheme
   Yang Guo               : DLPNO-NEVPT2, CIM, IAO-localization
   Andreas Hansen         : Spin unrestricted coupled pair/coupled cluster methods
   Benjamin Helmich-Paris : CASSCF linear response (MC-RPA)
   Lee Huntington         : MR-EOM, pCC
   Robert Izsak           : Overlap fitted RIJCOSX, COSX-SCS-MP3, EOM
   Christian Kollmar      : KDIIS, OOCD, Brueckner-CCSD(T), CCSD density
   Simone Kossmann        : Meta GGA functionals, TD-DFT gradient, OOMP2, MP2 Hessian
   Martin Krupicka        : AUTO-CI
   Lucas Lang             : DCDCAS
   Dagmar Lenk            : GEPOL surface, SMD
   Dimitrios Liakos       : Extrapolation schemes; Compound Job, initial MDCI parallelization
   Dimitrios Manganas     : Further ROCIS development; embedding schemes
   Dimitrios Pantazis     : SARC Basis sets
   Taras Petrenko         : DFT Hessian,TD-DFT gradient, ASA, ECA, R-Raman, ABS, FL, XAS/XES, NRVS
   Peter Pinski           : DLPNO-MP2, DLPNO-MP2 Gradient
   Christoph Reimann      : Effective Core Potentials
   Marius Retegan         : Local ZFS, SOC
   Christoph Riplinger    : Optimizer, TS searches, QM/MM, DLPNO-CCSD(T), (RO)-DLPNO pert. Triples
   Tobias Risthaus        : Range-separated hybrids, TD-DFT gradient, RPA, STAB
   Michael Roemelt        : Original ROCIS implementation
   Masaaki Saitow         : Open-shell DLPNO-CCSD energy and density
   Barbara Sandhoefer     : DKH picture change effects
   Avijit Sen             : IP-ROCIS
   Kantharuban Sivalingam : CASSCF convergence, NEVPT2, FIC-MRCI
   Bernardo de Souza      : ESD, SOC TD-DFT
   Georgi Stoychev        : AutoAux, RI-MP2 NMR
   Willem Van den Heuvel  : Paramagnetic NMR
   Boris Wezisla          : Elementary symmetry handling
   Frank Wennmohs         : Technical directorship


 We gratefully acknowledge several colleagues who have allowed us to
 interface, adapt or use parts of their codes:
   Stefan Grimme, W. Hujo, H. Kruse,             : VdW corrections, initial TS optimization,
                  C. Bannwarth                     DFT functionals, gCP, sTDA/sTD-DF
   Ed Valeev, F. Pavosevic, A. Kumar             : LibInt (2-el integral package), F12 methods
   Garnet Chan, S. Sharma, J. Yang, R. Olivares  : DMRG
   Ulf Ekstrom                                   : XCFun DFT Library
   Mihaly Kallay                                 : mrcc  (arbitrary order and MRCC methods)
   Andreas Klamt, Michael Diedenhofen            : otool_cosmo (COSMO solvation model)
   Jiri Pittner, Ondrej Demel                    : Mk-CCSD
   Frank Weinhold                                : gennbo (NPA and NBO analysis)
   Christopher J. Cramer and Donald G. Truhlar   : smd solvation model
   Lars Goerigk                                  : TD-DFT with DH, B97 family of functionals
   V. Asgeirsson, H. Jonsson                     : NEB implementation
   FAccTs GmbH                                   : IRC, NEB, NEB-TS, Multilevel, MM, QM/MM, CI optimization
   S Lehtola, MJT Oliveira, MAL Marques          : LibXC Library


 Your calculation uses the libint2 library for the computation of 2-el integrals
 For citations please refer to: http://libint.valeyev.net

 Your ORCA version has been built with support for libXC version: 4.2.3
 For citations please refer to: https://tddft.org/programs/libxc/

 This ORCA versions uses:
   CBLAS   interface :  Fast vector & matrix operations
   LAPACKE interface :  Fast linear algebra routines
   SCALAPACK package :  Parallel linear algebra routines


----- Orbital basis set information -----
Your calculation utilizes the basis: def2-TZVP
   F. Weigend and R. Ahlrichs, Phys. Chem. Chem. Phys. 7, 3297 (2005).

----- AuxJ basis set information -----
Your calculation utilizes the auxiliary basis: def2/J
   F. Weigend, Phys. Chem. Chem. Phys. 8, 1057 (2006).

----- AuxC basis set information -----
Your calculation utilizes the auxiliary basis: def2-TZVP/C
  H-La, Hf-Rn : A. Hellweg, C. Hattig, S. Hofener and W. Klopper, Theor. Chem. Acc. 117, 587 (2007).
        Ce-Lu : J. Chmela and M. E. Harding, Mol. Phys. (2018).

================================================================================
                                        WARNINGS
                       Please study these warnings very carefully!
================================================================================


WARNING: The frozen-core approximation for MP2-gradient calculations is turned on by default.

INFO   : the flag for use of LIBINT has been found!

================================================================================
                                       INPUT FILE
================================================================================
NAME = 16meoh.pires.deturi.dset-orca.engrad-mp2.def2tzvp.inp
|  1> ! RI-MP2 def2-TZVP def2/J def2-TZVP/C EnGrad TightSCF FrozenCore
|  2> 
|  3> %pal
|  4>     nprocs 12
|  5> end
|  6> 
|  7> %maxcore 50000
|  8> 
|  9> %scf
| 10>     ConvForced true
| 11> end
| 12> 
| 13> *xyz 0 1
| 14> O    -3.0187920901     0.7173145038     1.6771253393
| 15> H    -2.6818740701     0.523685618      0.7655303699
| 16> C    -3.3278139153    -0.5542090792     2.2174299125
| 17> H    -3.7750506912    -0.3497753788     3.1935880695
| 18> H    -2.4174176962    -1.1540403805     2.3480570893
| 19> H    -4.0410819154    -1.1004331028     1.5879263477
| 20> O    -5.3098773629     2.1730129545     1.1885828792
| 21> H    -4.5343218414     1.5874879303     1.379525357
| 22> C    -5.5242152635     2.0307382494    -0.2023286455
| 23> H    -6.3994088514     2.6468360532    -0.4227188317
| 24> H    -5.7293190789     0.9873193294    -0.4739293682
| 25> H    -4.6583442244     2.3940448554    -0.7813557913
| 26> O    -4.0641030381     4.6217354424     1.626909031
| 27> H    -4.5902296469     3.796181513      1.484292958
| 28> C    -3.2929976485     4.3380983344     2.7803352523
| 29> H    -2.6750942006     5.2262996108     2.9378342013
| 30> H    -2.6497816411     3.4618684411     2.6269107309
| 31> H    -3.9315247294     4.1758794746     3.6559375322
| 32> O     1.9291959359     3.6180485447    -0.9310103983
| 33> H     1.3676763728     4.2581772118    -0.420185781
| 34> C     1.304856342      3.5285158469    -2.1972926743
| 35> H     1.8974703642     2.7898853091    -2.7552523477
| 36> H     1.3263810561     4.4918482688    -2.7192780876
| 37> H     0.2613669908     3.1807323674    -2.1116176212
| 38> O    -2.2161153762     4.7490958374    -0.4265868654
| 39> H    -2.8929725618     4.756806409      0.2975544888
| 40> C    -2.1451964763     3.3855808245    -0.7989274729
| 41> H    -1.3748395193     3.3304218796    -1.5810282823
| 42> H    -3.1074744719     3.0268810039    -1.1978450031
| 43> H    -1.8472439388     2.7500892609     0.0468846606
| 44> O     0.3160610996     5.3458719732     0.4730924518
| 45> H    -0.6166892584     5.1654680853     0.1874041064
| 46> C     0.5784864181     6.6621093844     0.026039367
| 47> H     1.5853231019     6.8906492504     0.385706472
| 48> H    -0.1344648653     7.3795348855     0.4473712845
| 49> H     0.5563142811     6.7226015767    -1.0691937194
| 50> O    -2.3416408199     0.1823064781    -0.9452710972
| 51> H    -2.7755835411    -0.7034904434    -1.0311454568
| 52> C    -0.9544932721    -0.0641041087    -1.0846156267
| 53> H    -0.4975817453     0.930773221     -1.1381616852
| 54> H    -0.7283211057    -0.6255618103    -1.9980893869
| 55> H    -0.5596509566    -0.6063246713    -0.2091793542
| 56> O     1.9096635832     1.0363209298     0.0187891962
| 57> H     1.9133352929     1.9923761069    -0.2427262203
| 58> C     2.7104120356     0.9566188145     1.1829935037
| 59> H     2.515379678     -0.0472880301     1.5871580977
| 60> H     2.4306908881     1.7126843089     1.9244274923
| 61> H     3.7740244745     1.0578536272     0.9362094115
| 62> O     0.5055458657    -3.1692591993     1.4560441682
| 63> H     1.3687912201    -3.5198972497     1.7854128166
| 64> C     0.4390280179    -1.8518654485     1.9702163596
| 65> H    -0.2886010564    -1.3233024958     1.3361810302
| 66> H     1.4082330204    -1.329128129      1.9201267316
| 67> H     0.0806548534    -1.86759871       3.0052900524
| 68> O     0.1265094396    -3.076363248     -1.2561966676
| 69> H     0.3400087948    -3.0935242228    -0.2884518046
| 70> C     1.3188200806    -3.418433896     -1.9292718243
| 71> H     1.0422114723    -3.4795716855    -2.9848242339
| 72> H     1.7176883187    -4.3846869277    -1.5928970878
| 73> H     2.0868868172    -2.6459782816    -1.7913058378
| 74> O    -2.2405490006    -4.3403676353    -1.7570858381
| 75> H    -1.3302443341    -3.9744021993    -1.6259089695
| 76> C    -2.3686139387    -5.3445773423    -0.7685631912
| 77> H    -3.3858797329    -5.728552846     -0.882562074
| 78> H    -2.2376065184    -4.9396646319     0.2422051445
| 79> H    -1.6506923715    -6.1563098173    -0.9327359048
| 80> O    -3.7455302558    -2.1811700774    -0.9407178111
| 81> H    -3.2563752438    -2.9832287744    -1.2565626851
| 82> C    -4.8300236147    -2.030924414     -1.835448747
| 83> H    -5.3670491449    -1.1449244068    -1.481069017
| 84> H    -5.4951880504    -2.9011947886    -1.8058749797
| 85> H    -4.4863297417    -1.8672617321    -2.8635172191
| 86> O     3.1900122954    -0.2943107065    -2.0209410159
| 87> H     2.7145091168     0.1638871675    -1.2795605075
| 88> C     3.7736218558     0.7544871096    -2.7711059828
| 89> H     4.1690484133     0.2796037312    -3.6724113528
| 90> H     4.5895707778     1.2318072097    -2.2151899958
| 91> H     3.0276321328     1.5168768141    -3.0480433727
| 92> O     5.2091590613    -1.7602860194    -0.8871113802
| 93> H     4.4881903036    -1.244416518     -1.3346632385
| 94> C     5.0986128902    -3.0685626063    -1.4109926491
| 95> H     5.9986754994    -3.5900324981    -1.0743952535
| 96> H     5.0587262593    -3.0691973663    -2.5056874805
| 97> H     4.2072352596    -3.5835397863    -1.0102626251
| 98> O     4.5032956384    -1.8075264656     1.7682135139
| 99> H     4.8097346281    -1.7800911707     0.8256230274
|100> C     5.6838205846    -1.7834102347     2.5464171701
|101> H     5.3404454922    -1.8141344666     3.5839040821
|102> H     6.2550917499    -0.8645009595     2.3734778661
|103> H     6.3181243121    -2.6539172648     2.3412409211
|104> O     3.008513329     -4.0772968044     2.2050528486
|105> H     3.6009522475    -3.2933436404     2.0810789218
|106> C     3.4136986867    -4.9991528037     1.2135295829
|107> H     2.6771415653    -5.8058204759     1.250508246
|108> H     4.4102334553    -5.3996324695     1.4323937302
|109> H     3.4196854048    -4.5462570331     0.2062764962
|110> *
|111> 
|112> 
|113>                          ****END OF INPUT****
================================================================================

                     *******************************
                     * Energy+Gradient Calculation *
                     *******************************

---------------------------------
CARTESIAN COORDINATES (ANGSTROEM)
---------------------------------
  O     -3.018792    0.717315    1.677125
  H     -2.681874    0.523686    0.765530
  C     -3.327814   -0.554209    2.217430
  H     -3.775051   -0.349775    3.193588
  H     -2.417418   -1.154040    2.348057
  H     -4.041082   -1.100433    1.587926
  O     -5.309877    2.173013    1.188583
  H     -4.534322    1.587488    1.379525
  C     -5.524215    2.030738   -0.202329
  H     -6.399409    2.646836   -0.422719
  H     -5.729319    0.987319   -0.473929
  H     -4.658344    2.394045   -0.781356
  O     -4.064103    4.621735    1.626909
  H     -4.590230    3.796182    1.484293
  C     -3.292998    4.338098    2.780335
  H     -2.675094    5.226300    2.937834
  H     -2.649782    3.461868    2.626911
  H     -3.931525    4.175879    3.655938
  O      1.929196    3.618049   -0.931010
  H      1.367676    4.258177   -0.420186
  C      1.304856    3.528516   -2.197293
  H      1.897470    2.789885   -2.755252
  H      1.326381    4.491848   -2.719278
  H      0.261367    3.180732   -2.111618
  O     -2.216115    4.749096   -0.426587
  H     -2.892973    4.756806    0.297554
  C     -2.145196    3.385581   -0.798927
  H     -1.374840    3.330422   -1.581028
  H     -3.107474    3.026881   -1.197845
  H     -1.847244    2.750089    0.046885
  O      0.316061    5.345872    0.473092
  H     -0.616689    5.165468    0.187404
  C      0.578486    6.662109    0.026039
  H      1.585323    6.890649    0.385706
  H     -0.134465    7.379535    0.447371
  H      0.556314    6.722602   -1.069194
  O     -2.341641    0.182306   -0.945271
  H     -2.775584   -0.703490   -1.031145
  C     -0.954493   -0.064104   -1.084616
  H     -0.497582    0.930773   -1.138162
  H     -0.728321   -0.625562   -1.998089
  H     -0.559651   -0.606325   -0.209179
  O      1.909664    1.036321    0.018789
  H      1.913335    1.992376   -0.242726
  C      2.710412    0.956619    1.182994
  H      2.515380   -0.047288    1.587158
  H      2.430691    1.712684    1.924427
  H      3.774024    1.057854    0.936209
  O      0.505546   -3.169259    1.456044
  H      1.368791   -3.519897    1.785413
  C      0.439028   -1.851865    1.970216
  H     -0.288601   -1.323302    1.336181
  H      1.408233   -1.329128    1.920127
  H      0.080655   -1.867599    3.005290
  O      0.126509   -3.076363   -1.256197
  H      0.340009   -3.093524   -0.288452
  C      1.318820   -3.418434   -1.929272
  H      1.042211   -3.479572   -2.984824
  H      1.717688   -4.384687   -1.592897
  H      2.086887   -2.645978   -1.791306
  O     -2.240549   -4.340368   -1.757086
  H     -1.330244   -3.974402   -1.625909
  C     -2.368614   -5.344577   -0.768563
  H     -3.385880   -5.728553   -0.882562
  H     -2.237607   -4.939665    0.242205
  H     -1.650692   -6.156310   -0.932736
  O     -3.745530   -2.181170   -0.940718
  H     -3.256375   -2.983229   -1.256563
  C     -4.830024   -2.030924   -1.835449
  H     -5.367049   -1.144924   -1.481069
  H     -5.495188   -2.901195   -1.805875
  H     -4.486330   -1.867262   -2.863517
  O      3.190012   -0.294311   -2.020941
  H      2.714509    0.163887   -1.279561
  C      3.773622    0.754487   -2.771106
  H      4.169048    0.279604   -3.672411
  H      4.589571    1.231807   -2.215190
  H      3.027632    1.516877   -3.048043
  O      5.209159   -1.760286   -0.887111
  H      4.488190   -1.244417   -1.334663
  C      5.098613   -3.068563   -1.410993
  H      5.998675   -3.590032   -1.074395
  H      5.058726   -3.069197   -2.505687
  H      4.207235   -3.583540   -1.010263
  O      4.503296   -1.807526    1.768214
  H      4.809735   -1.780091    0.825623
  C      5.683821   -1.783410    2.546417
  H      5.340445   -1.814134    3.583904
  H      6.255092   -0.864501    2.373478
  H      6.318124   -2.653917    2.341241
  O      3.008513   -4.077297    2.205053
  H      3.600952   -3.293344    2.081079
  C      3.413699   -4.999153    1.213530
  H      2.677142   -5.805820    1.250508
  H      4.410233   -5.399632    1.432394
  H      3.419685   -4.546257    0.206276

----------------------------
CARTESIAN COORDINATES (A.U.)
----------------------------
  NO LB      ZA    FRAG     MASS         X           Y           Z
   0 O     8.0000    0    15.999   -5.704690    1.355528    3.169308
   1 H     1.0000    0     1.008   -5.068008    0.989622    1.446643
   2 C     6.0000    0    12.011   -6.288657   -1.047303    4.190335
   3 H     1.0000    0     1.008   -7.133812   -0.660980    6.035007
   4 H     1.0000    0     1.008   -4.568257   -2.180820    4.437185
   5 H     1.0000    0     1.008   -7.636538   -2.079517    3.000746
   6 O     8.0000    0    15.999  -10.034214    4.106399    2.246096
   7 H     1.0000    0     1.008   -8.568626    2.999917    2.606925
   8 C     6.0000    0    12.011  -10.439254    3.837539   -0.382346
   9 H     1.0000    0     1.008  -12.093130    5.001795   -0.798823
  10 H     1.0000    0     1.008  -10.826844    1.865763   -0.895597
  11 H     1.0000    0     1.008   -8.802995    4.524089   -1.476548
  12 O     8.0000    0    15.999   -7.680042    8.733814    3.074413
  13 H     1.0000    0     1.008   -8.674277    7.173743    2.804907
  14 C     6.0000    0    12.011   -6.222864    8.197818    5.254072
  15 H     1.0000    0     1.008   -5.055195    9.876275    5.551702
  16 H     1.0000    0     1.008   -5.007362    6.541983    4.964142
  17 H     1.0000    0     1.008   -7.429505    7.891269    6.908721
  18 O     8.0000    0    15.999    3.645652    6.837121   -1.759355
  19 H     1.0000    0     1.008    2.584534    8.046789   -0.794036
  20 C     6.0000    0    12.011    2.465821    6.667929   -4.152281
  21 H     1.0000    0     1.008    3.585699    5.272119   -5.206672
  22 H     1.0000    0     1.008    2.506497    8.488363   -5.138691
  23 H     1.0000    0     1.008    0.493912    6.010713   -3.990379
  24 O     8.0000    0    15.999   -4.187851    8.974491   -0.806132
  25 H     1.0000    0     1.008   -5.466926    8.989061    0.562296
  26 C     6.0000    0    12.011   -4.053834    6.397821   -1.509754
  27 H     1.0000    0     1.008   -2.598070    6.293585   -2.987710
  28 H     1.0000    0     1.008   -5.872276    5.719976   -2.263599
  29 H     1.0000    0     1.008   -3.490785    5.196916    0.088599
  30 O     8.0000    0    15.999    0.597269   10.102234    0.894015
  31 H     1.0000    0     1.008   -1.165374    9.761320    0.354142
  32 C     6.0000    0    12.011    1.093181   12.589562    0.049207
  33 H     1.0000    0     1.008    2.995826   13.021440    0.728880
  34 H     1.0000    0     1.008   -0.254102   13.945300    0.845409
  35 H     1.0000    0     1.008    1.051282   12.703876   -2.020483
  36 O     8.0000    0    15.999   -4.425060    0.344509   -1.786303
  37 H     1.0000    0     1.008   -5.245093   -1.329404   -1.948583
  38 C     6.0000    0    12.011   -1.803731   -0.121139   -2.049626
  39 H     1.0000    0     1.008   -0.940293    1.758906   -2.150814
  40 H     1.0000    0     1.008   -1.376327   -1.182141   -3.775842
  41 H     1.0000    0     1.008   -1.057587   -1.145788   -0.395292
  42 O     8.0000    0    15.999    3.608741    1.958363    0.035506
  43 H     1.0000    0     1.008    3.615680    3.765045   -0.458686
  44 C     6.0000    0    12.011    5.121936    1.807748    2.235534
  45 H     1.0000    0     1.008    4.753379   -0.089361    2.999294
  46 H     1.0000    0     1.008    4.593340    3.236504    3.636641
  47 H     1.0000    0     1.008    7.131873    1.999054    1.769179
  48 O     8.0000    0    15.999    0.955343   -5.989032    2.751525
  49 H     1.0000    0     1.008    2.586641   -6.651642    3.373941
  50 C     6.0000    0    12.011    0.829643   -3.499519    3.723169
  51 H     1.0000    0     1.008   -0.545377   -2.500679    2.525016
  52 H     1.0000    0     1.008    2.661175   -2.511688    3.628514
  53 H     1.0000    0     1.008    0.152416   -3.529250    5.679175
  54 O     8.0000    0    15.999    0.239068   -5.813484   -2.373868
  55 H     1.0000    0     1.008    0.642524   -5.845914   -0.545095
  56 C     6.0000    0    12.011    2.492209   -6.459904   -3.645795
  57 H     1.0000    0     1.008    1.969494   -6.575438   -5.640500
  58 H     1.0000    0     1.008    3.245961   -8.285857   -3.010139
  59 H     1.0000    0     1.008    3.943645   -5.000174   -3.385077
  60 O     8.0000    0    15.999   -4.234024   -8.202106   -3.320411
  61 H     1.0000    0     1.008   -2.513797   -7.510532   -3.072523
  62 C     6.0000    0    12.011   -4.476032  -10.099787   -1.452374
  63 H     1.0000    0     1.008   -6.398385  -10.825396   -1.667801
  64 H     1.0000    0     1.008   -4.228464   -9.334613    0.457701
  65 H     1.0000    0     1.008   -3.119357  -11.633740   -1.762615
  66 O     8.0000    0    15.999   -7.078026   -4.121814   -1.777699
  67 H     1.0000    0     1.008   -6.153657   -5.637485   -2.374559
  68 C     6.0000    0    12.011   -9.127422   -3.837891   -3.468495
  69 H     1.0000    0     1.008  -10.142253   -2.163594   -2.798815
  70 H     1.0000    0     1.008  -10.384400   -5.482464   -3.412609
  71 H     1.0000    0     1.008   -8.477935   -3.528613   -5.411263
  72 O     8.0000    0    15.999    6.028250   -0.556167   -3.819025
  73 H     1.0000    0     1.008    5.129679    0.309702   -2.418019
  74 C     6.0000    0    12.011    7.131112    1.425774   -5.236631
  75 H     1.0000    0     1.008    7.878360    0.528374   -6.939852
  76 H     1.0000    0     1.008    8.673032    2.327778   -4.186102
  77 H     1.0000    0     1.008    5.721396    2.866482   -5.759967
  78 O     8.0000    0    15.999    9.843884   -3.326458   -1.676398
  79 H     1.0000    0     1.008    8.481451   -2.351606   -2.522148
  80 C     6.0000    0    12.011    9.634982   -5.798743   -2.666390
  81 H     1.0000    0     1.008   11.335854   -6.784178   -2.030313
  82 H     1.0000    0     1.008    9.559607   -5.799942   -4.735063
  83 H     1.0000    0     1.008    7.950522   -6.771909   -1.909120
  84 O     8.0000    0    15.999    8.509995   -3.415730    3.341439
  85 H     1.0000    0     1.008    9.089081   -3.363885    1.560201
  86 C     6.0000    0    12.011   10.740864   -3.370157    4.812031
  87 H     1.0000    0     1.008   10.091979   -3.428217    6.772597
  88 H     1.0000    0     1.008   11.820410   -1.633670    4.485223
  89 H     1.0000    0     1.008   11.939525   -5.015177    4.424304
  90 O     8.0000    0    15.999    5.685266   -7.704974    4.166946
  91 H     1.0000    0     1.008    6.804814   -6.223518    3.932669
  92 C     6.0000    0    12.011    6.450956   -9.447030    2.293239
  93 H     1.0000    0     1.008    5.059064  -10.971411    2.363118
  94 H     1.0000    0     1.008    8.334133  -10.203827    2.706832
  95 H     1.0000    0     1.008    6.462269   -8.591181    0.389806

--------------------------------
INTERNAL COORDINATES (ANGSTROEM)
--------------------------------
 O      0   0   0     0.000000000000     0.00000000     0.00000000
 H      1   0   0     0.990964825739     0.00000000     0.00000000
 C      1   2   0     1.415696204133   104.46586958     0.00000000
 H      3   1   2     1.093022698325   105.19915429   184.36154181
 H      3   1   2     1.098035666584   110.79753124    66.02003149
 H      3   1   2     1.096989818558   111.72422915   303.50732111
 O      1   2   3     2.758043408276   102.86236863   243.85709367
 H      7   1   2     0.990345874289     4.63218279   102.81955150
 C      7   1   2     1.414502632337   104.29802052    10.89649883
 H      9   7   1     1.092754388837   105.24642242   182.97026803
 H      9   7   1     1.097523380287   111.54806397    64.11938809
 H      9   7   1     1.103175771076   111.34980766   301.76482026
 O      7   1   2     2.782144012525    93.70831542   261.11434220
 H     13   7   1     0.989286532362     5.53605352   198.59124932
 C     13   7   1     1.416137556485   101.29471561   316.93894964
 H     15  13   7     1.093394758201   105.20890450   173.05462854
 H     15  13   7     1.097745299172   111.41316394    54.22546991
 H     15  13   7     1.095769658315   111.29616816   291.60813786
 O     17  15  13     5.800881884424   121.78621044    70.24702715
 H     19  17  15     0.992980724801    41.88022656    22.13690899
 C     19  17  15     1.414668454090   101.47459540   283.02627051
 H     21  19  17     1.099129404492   105.00896284   225.17032476
 H     21  19  17     1.095874737412   111.22640434   106.48935349
 H     21  19  17     1.103251371812   111.58405226   343.97876089
 O     13   7   1     2.765524265900   102.87127029    64.83584609
 H     25  13   7     0.991249617138     3.26944826   133.94756789
 C     25  13   7     1.415217371558   100.63049221   341.40214306
 H     27  25  13     1.099169698666   105.70438014   183.46017433
 H     27  25  13     1.101716704972   111.41885377    64.27438604
 H     27  25  13     1.099101181505   111.60383995   302.04291887
 O     20  19  17     1.756963453803   177.58059114   327.44807897
 H     31  20  19     0.992061804434   107.68400373   337.61491609
 C     31  20  19     1.414639328967   107.71660876   225.26929115
 H     33  31  20     1.093302796400   105.15134612   291.30535235
 H     33  31  20     1.095682192442   111.53071304   172.56221199
 H     33  31  20     1.097126438718   111.28617604    49.89407035
 O      2   1   3     1.777396984788   171.13337552    86.08588352
 H     37   2   1     0.990109527809    99.87028804   294.83754751
 C     37   2   1     1.415737756280   108.40449848   184.86532135
 H     39  37   2     1.096091339649   104.78937083   278.02701780
 H     39  37   2     1.095820655999   111.92864593   159.11561060
 H     39  37   2     1.102856409432   110.99160534    36.27454070
 O     40  39  37     2.672920824190   112.96185881   145.46262510
 H     43  40  39     0.991183785268    85.82649131   180.22959073
 C     43  40  39     1.415246332200   149.70073156   294.45015797
 H     45  43  40     1.099643393191   104.67932833    58.43351993
 H     45  43  40     1.095264037405   111.93098831   299.74676526
 H     45  43  40     1.096550179266   111.00645179   176.85889651
 O     42  39  37     3.236703113448   156.27969315   102.55905655
 H     49  42  39     0.988242526322   137.72240761   105.94636396
 C     49  42  39     1.415741488102    55.56712648   178.29923731
 H     51  49  42     1.100374328881   105.59186510    20.84503390
 H     51  49  42     1.102325547605   112.54800961   261.90215440
 H     51  49  42     1.095470862268   110.19186030   139.08770956
 O     41  39  37     2.699549546713   107.54277681   248.18719382
 H     55  41  39     0.991164261659   110.62528306   346.23503037
 C     55  41  39     1.411257297388   110.88608244   228.63826383
 H     57  55  41     1.092904863610   105.09160578   295.44782783
 H     57  55  41     1.098129662649   111.96619166   176.31325737
 H     57  55  41     1.098020401231   111.13294059    54.08555107
 O     55  41  39     2.729755064389    95.47255310   101.08508004
 H     61  55  41     0.989844764119     6.79910265   137.34905921
 C     61  55  41     1.414925717993   106.19609105   215.20725384
 H     63  61  55     1.093280672458   105.10768269   171.07845927
 H     63  61  55     1.096708655784   111.78005549    52.15246528
 H     63  61  55     1.096026307855   111.20454682   289.47271952
 O     38  37   2     1.769890078282   169.32539112    27.29009703
 H     67  38  37     0.991124998994   112.88496888   206.16459444
 C     67  38  37     1.413945915700   107.41485693    90.60532573
 H     69  67  38     1.094978276442   104.91303899   300.44992178
 H     69  67  38     1.095759489641   111.35359975   181.91646023
 H     69  67  38     1.096282689415   111.64279887    59.15337449
 O     60  57  55     2.607673008537   156.82087666   294.22130361
 H     73  60  57     0.992821042702    98.50158433    82.26066124
 C     73  60  57     1.415388446897   152.79192600   294.43366991
 H     75  73  60     1.092807281934   105.32692234   335.50380248
 H     75  73  60     1.096653867852   111.13938441   216.70553867
 H     75  73  60     1.102013178811   111.51241986    94.52178723
 O     73  60  57     2.740731092805    78.04465487   187.85795873
 H     79  73  60     0.993086077801     2.37634539    81.58461827
 C     79  73  60     1.413598128069   106.50526966    34.15323201
 H     81  79  73     1.093316676567   105.24515172   171.24498838
 H     81  79  73     1.095421434946   111.94641192    52.11422959
 H     81  79  73     1.104690059876   111.10666199   289.41633604
 O     46  45  43     2.661396302537   119.75818513   117.67575697
 H     85  46  45     0.991531328328    98.50380162   305.85235187
 C     85  46  45     1.414150512398   130.51921573    64.52571303
 H     87  85  46     1.093265532740   105.04325069    64.15097759
 H     87  85  46     1.095743128301   111.26444915   305.52123977
 H     87  85  46     1.096458390149   111.49475786   182.89134547
 O     50  49  42     1.781987826685   173.33770699   324.11550219
 H     91  50  49     0.990422117092   105.86353021    50.12033455
 C     91  50  49     1.413192146866   107.61659512   298.36997019
 H     93  91  50     1.092976005218   105.33652581   300.12522816
 H     93  91  50     1.096068895061   111.03411078   181.50143636
 H     93  91  50     1.104404455119   111.95938383    59.30482834

---------------------------
INTERNAL COORDINATES (A.U.)
---------------------------
 O      0   0   0     0.000000000000     0.00000000     0.00000000
 H      1   0   0     1.872652128996     0.00000000     0.00000000
 C      1   2   0     2.675278114643   104.46586958     0.00000000
 H      3   1   2     2.065513557994   105.19915429   184.36154181
 H      3   1   2     2.074986695121   110.79753124    66.02003149
 H      3   1   2     2.073010328775   111.72422915   303.50732111
 O      1   2   3     5.211946707107   102.86236863   243.85709367
 H      7   1   2     1.871482480266     4.63218279   102.81955150
 C      7   1   2     2.673022590828   104.29802052    10.89649883
 H      9   7   1     2.065006526542   105.24642242   182.97026803
 H      9   7   1     2.074018614318   111.54806397    64.11938809
 H      9   7   1     2.084700084911   111.34980766   301.76482026
 O      7   1   2     5.257490248801    93.70831542   261.11434220
 H     13   7   1     1.869480614141     5.53605352   198.59124932
 C     13   7   1     2.676112149717   101.29471561   316.93894964
 H     15  13   7     2.066216649265   105.20890450   173.05462854
 H     15  13   7     2.074437980235   111.41316394    54.22546991
 H     15  13   7     2.070704560076   111.29616816   291.60813786
 O     17  15  13    10.962078096786   121.78621044    70.24702715
 H     19  17  15     1.876461626137    41.88022656    22.13690899
 C     19  17  15     2.673335948528   101.47459540   283.02627051
 H     21  19  17     2.077053560230   105.00896284   225.17032476
 H     21  19  17     2.070903130792   111.22640434   106.48935349
 H     21  19  17     2.084842949597   111.58405226   343.97876089
 O     13   7   1     5.226083479264   102.87127029    64.83584609
 H     25  13   7     1.873190306744     3.26944826   133.94756789
 C     25  13   7     2.674373252213   100.63049221   341.40214306
 H     27  25  13     2.077129705183   105.70438014   183.46017433
 H     27  25  13     2.081942849564   111.41885377    64.27438604
 H     27  25  13     2.077000226513   111.60383995   302.04291887
 O     20  19  17     3.320179754996   177.58059114   327.44807897
 H     31  20  19     1.874725118303   107.68400373   337.61491609
 C     31  20  19     2.673280910023   107.71660876   225.26929115
 H     33  31  20     2.066042866646   105.15134612   291.30535235
 H     33  31  20     2.070539273530   111.53071304   172.56221199
 H     33  31  20     2.073268503461   111.28617604    49.89407035
 O      2   1   3     3.358793532506   171.13337552    86.08588352
 H     37   2   1     1.871035850145    99.87028804   294.83754751
 C     37   2   1     2.675356636821   108.40449848   184.86532135
 H     39  37   2     2.071312449700   104.78937083   278.02701780
 H     39  37   2     2.070800931732   111.92864593   159.11561060
 H     39  37   2     2.084096578865   110.99160534    36.27454070
 O     40  39  37     5.051088335375   112.96185881   145.46262510
 H     43  40  39     1.873065902541    85.82649131   180.22959073
 C     43  40  39     2.674427979895   149.70073156   294.45015797
 H     45  43  40     2.078024858107   104.67932833    58.43351993
 H     45  43  40     2.069749075028   111.93098831   299.74676526
 H     45  43  40     2.072179530915   111.00645179   176.85889651
 O     42  39  37     6.116482461228   156.27969315   102.55905655
 H     49  42  39     1.867507728642   137.72240761   105.94636396
 C     49  42  39     2.675363688942    55.56712648   178.29923731
 H     51  49  42     2.079406126383   105.59186510    20.84503390
 H     51  49  42     2.083093395398   112.54800961   261.90215440
 H     51  49  42     2.070139917377   110.19186030   139.08770956
 O     41  39  37     5.101409328240   107.54277681   248.18719382
 H     55  41  39     1.873029008266   110.62528306   346.23503037
 C     55  41  39     2.666889796562   110.88608244   228.63826383
 H     57  55  41     2.065290882654   105.09160578   295.44782783
 H     57  55  41     2.075164321942   111.96619166   176.31325737
 H     57  55  41     2.074957847786   111.13294059    54.08555107
 O     55  41  39     5.158489484381    95.47255310   101.08508004
 H     61  55  41     1.870535519281     6.79910265   137.34905921
 C     61  55  41     2.673822106849   106.19609105   215.20725384
 H     63  61  55     2.066001058455   105.10768269   171.07845927
 H     63  61  55     2.072479008132   111.78005549    52.15246528
 H     63  61  55     2.071189557420   111.20454682   289.47271952
 O     38  37   2     3.344607535098   169.32539112    27.29009703
 H     67  38  37     1.872954812581   112.88496888   206.16459444
 C     67  38  37     2.671970548850   107.41485693    90.60532573
 H     69  67  38     2.069209065068   104.91303899   300.44992178
 H     69  67  38     2.070685344067   111.35359975   181.91646023
 H     69  67  38     2.071674048353   111.64279887    59.15337449
 O     60  57  55     4.927787832953   156.82087666   294.22130361
 H     73  60  57     1.876159870701    98.50158433    82.26066124
 C     73  60  57     2.674696537752   152.79192600   294.43366991
 H     75  73  60     2.065106480010   105.32692234   335.50380248
 H     75  73  60     2.072375473946   111.13938441   216.70553867
 H     75  73  60     2.082503103925   111.51241986    94.52178723
 O     73  60  57     5.179231172124    78.04465487   187.85795873
 H     79  73  60     1.876660714454     2.37634539    81.58461827
 C     79  73  60     2.671313325474   106.50526966    34.15323201
 H     81  79  73     2.066069096360   105.24515172   171.24498838
 H     81  79  73     2.070046513275   111.94641192    52.11422959
 H     81  79  73     2.087561676032   111.10666199   289.41633604
 O     46  45  43     5.029310145626   119.75818513   117.67575697
 H     85  46  45     1.873722663742    98.50380162   305.85235187
 C     85  46  45     2.672357180577   130.51921573    64.52571303
 H     87  85  46     2.065972448535   105.04325069    64.15097759
 H     87  85  46     2.070654425616   111.26444915   305.52123977
 H     87  85  46     2.072006074621   111.49475786   182.89134547
 O     50  49  42     3.367468966415   173.33770699   324.11550219
 H     91  50  49     1.871626558283   105.86353021    50.12033455
 C     91  50  49     2.670546132185   107.61659512   298.36997019
 H     93  91  50     2.065425320809   105.33652581   300.12522816
 H     93  91  50     2.071270035576   111.03411078   181.50143636
 H     93  91  50     2.087021961258   111.95938383    59.30482834

---------------------
BASIS SET INFORMATION
---------------------
There are 3 groups of distinct atoms

 Group   1 Type O   : 11s6p2d1f contracted to 5s3p2d1f pattern {62111/411/11/1}
 Group   2 Type H   : 5s1p contracted to 3s1p pattern {311/1}
 Group   3 Type C   : 11s6p2d1f contracted to 5s3p2d1f pattern {62111/411/11/1}

Atom   0O    basis set group =>   1
Atom   1H    basis set group =>   2
Atom   2C    basis set group =>   3
Atom   3H    basis set group =>   2
Atom   4H    basis set group =>   2
Atom   5H    basis set group =>   2
Atom   6O    basis set group =>   1
Atom   7H    basis set group =>   2
Atom   8C    basis set group =>   3
Atom   9H    basis set group =>   2
Atom  10H    basis set group =>   2
Atom  11H    basis set group =>   2
Atom  12O    basis set group =>   1
Atom  13H    basis set group =>   2
Atom  14C    basis set group =>   3
Atom  15H    basis set group =>   2
Atom  16H    basis set group =>   2
Atom  17H    basis set group =>   2
Atom  18O    basis set group =>   1
Atom  19H    basis set group =>   2
Atom  20C    basis set group =>   3
Atom  21H    basis set group =>   2
Atom  22H    basis set group =>   2
Atom  23H    basis set group =>   2
Atom  24O    basis set group =>   1
Atom  25H    basis set group =>   2
Atom  26C    basis set group =>   3
Atom  27H    basis set group =>   2
Atom  28H    basis set group =>   2
Atom  29H    basis set group =>   2
Atom  30O    basis set group =>   1
Atom  31H    basis set group =>   2
Atom  32C    basis set group =>   3
Atom  33H    basis set group =>   2
Atom  34H    basis set group =>   2
Atom  35H    basis set group =>   2
Atom  36O    basis set group =>   1
Atom  37H    basis set group =>   2
Atom  38C    basis set group =>   3
Atom  39H    basis set group =>   2
Atom  40H    basis set group =>   2
Atom  41H    basis set group =>   2
Atom  42O    basis set group =>   1
Atom  43H    basis set group =>   2
Atom  44C    basis set group =>   3
Atom  45H    basis set group =>   2
Atom  46H    basis set group =>   2
Atom  47H    basis set group =>   2
Atom  48O    basis set group =>   1
Atom  49H    basis set group =>   2
Atom  50C    basis set group =>   3
Atom  51H    basis set group =>   2
Atom  52H    basis set group =>   2
Atom  53H    basis set group =>   2
Atom  54O    basis set group =>   1
Atom  55H    basis set group =>   2
Atom  56C    basis set group =>   3
Atom  57H    basis set group =>   2
Atom  58H    basis set group =>   2
Atom  59H    basis set group =>   2
Atom  60O    basis set group =>   1
Atom  61H    basis set group =>   2
Atom  62C    basis set group =>   3
Atom  63H    basis set group =>   2
Atom  64H    basis set group =>   2
Atom  65H    basis set group =>   2
Atom  66O    basis set group =>   1
Atom  67H    basis set group =>   2
Atom  68C    basis set group =>   3
Atom  69H    basis set group =>   2
Atom  70H    basis set group =>   2
Atom  71H    basis set group =>   2
Atom  72O    basis set group =>   1
Atom  73H    basis set group =>   2
Atom  74C    basis set group =>   3
Atom  75H    basis set group =>   2
Atom  76H    basis set group =>   2
Atom  77H    basis set group =>   2
Atom  78O    basis set group =>   1
Atom  79H    basis set group =>   2
Atom  80C    basis set group =>   3
Atom  81H    basis set group =>   2
Atom  82H    basis set group =>   2
Atom  83H    basis set group =>   2
Atom  84O    basis set group =>   1
Atom  85H    basis set group =>   2
Atom  86C    basis set group =>   3
Atom  87H    basis set group =>   2
Atom  88H    basis set group =>   2
Atom  89H    basis set group =>   2
Atom  90O    basis set group =>   1
Atom  91H    basis set group =>   2
Atom  92C    basis set group =>   3
Atom  93H    basis set group =>   2
Atom  94H    basis set group =>   2
Atom  95H    basis set group =>   2
---------------------------------
AUXILIARY/J BASIS SET INFORMATION
---------------------------------
There are 3 groups of distinct atoms

 Group   1 Type O   : 12s5p4d2f1g contracted to 6s4p3d1f1g pattern {711111/2111/211/2/1}
 Group   2 Type H   : 5s2p1d contracted to 3s1p1d pattern {311/2/1}
 Group   3 Type C   : 12s5p4d2f1g contracted to 6s4p3d1f1g pattern {711111/2111/211/2/1}

Atom   0O    basis set group =>   1
Atom   1H    basis set group =>   2
Atom   2C    basis set group =>   3
Atom   3H    basis set group =>   2
Atom   4H    basis set group =>   2
Atom   5H    basis set group =>   2
Atom   6O    basis set group =>   1
Atom   7H    basis set group =>   2
Atom   8C    basis set group =>   3
Atom   9H    basis set group =>   2
Atom  10H    basis set group =>   2
Atom  11H    basis set group =>   2
Atom  12O    basis set group =>   1
Atom  13H    basis set group =>   2
Atom  14C    basis set group =>   3
Atom  15H    basis set group =>   2
Atom  16H    basis set group =>   2
Atom  17H    basis set group =>   2
Atom  18O    basis set group =>   1
Atom  19H    basis set group =>   2
Atom  20C    basis set group =>   3
Atom  21H    basis set group =>   2
Atom  22H    basis set group =>   2
Atom  23H    basis set group =>   2
Atom  24O    basis set group =>   1
Atom  25H    basis set group =>   2
Atom  26C    basis set group =>   3
Atom  27H    basis set group =>   2
Atom  28H    basis set group =>   2
Atom  29H    basis set group =>   2
Atom  30O    basis set group =>   1
Atom  31H    basis set group =>   2
Atom  32C    basis set group =>   3
Atom  33H    basis set group =>   2
Atom  34H    basis set group =>   2
Atom  35H    basis set group =>   2
Atom  36O    basis set group =>   1
Atom  37H    basis set group =>   2
Atom  38C    basis set group =>   3
Atom  39H    basis set group =>   2
Atom  40H    basis set group =>   2
Atom  41H    basis set group =>   2
Atom  42O    basis set group =>   1
Atom  43H    basis set group =>   2
Atom  44C    basis set group =>   3
Atom  45H    basis set group =>   2
Atom  46H    basis set group =>   2
Atom  47H    basis set group =>   2
Atom  48O    basis set group =>   1
Atom  49H    basis set group =>   2
Atom  50C    basis set group =>   3
Atom  51H    basis set group =>   2
Atom  52H    basis set group =>   2
Atom  53H    basis set group =>   2
Atom  54O    basis set group =>   1
Atom  55H    basis set group =>   2
Atom  56C    basis set group =>   3
Atom  57H    basis set group =>   2
Atom  58H    basis set group =>   2
Atom  59H    basis set group =>   2
Atom  60O    basis set group =>   1
Atom  61H    basis set group =>   2
Atom  62C    basis set group =>   3
Atom  63H    basis set group =>   2
Atom  64H    basis set group =>   2
Atom  65H    basis set group =>   2
Atom  66O    basis set group =>   1
Atom  67H    basis set group =>   2
Atom  68C    basis set group =>   3
Atom  69H    basis set group =>   2
Atom  70H    basis set group =>   2
Atom  71H    basis set group =>   2
Atom  72O    basis set group =>   1
Atom  73H    basis set group =>   2
Atom  74C    basis set group =>   3
Atom  75H    basis set group =>   2
Atom  76H    basis set group =>   2
Atom  77H    basis set group =>   2
Atom  78O    basis set group =>   1
Atom  79H    basis set group =>   2
Atom  80C    basis set group =>   3
Atom  81H    basis set group =>   2
Atom  82H    basis set group =>   2
Atom  83H    basis set group =>   2
Atom  84O    basis set group =>   1
Atom  85H    basis set group =>   2
Atom  86C    basis set group =>   3
Atom  87H    basis set group =>   2
Atom  88H    basis set group =>   2
Atom  89H    basis set group =>   2
Atom  90O    basis set group =>   1
Atom  91H    basis set group =>   2
Atom  92C    basis set group =>   3
Atom  93H    basis set group =>   2
Atom  94H    basis set group =>   2
Atom  95H    basis set group =>   2
---------------------------------
AUXILIARY/C BASIS SET INFORMATION
---------------------------------
There are 3 groups of distinct atoms

 Group   1 Type O   : 8s6p5d3f1g contracted to 8s6p4d3f1g pattern {11111111/111111/2111/111/1}
 Group   2 Type H   : 4s3p2d contracted to 4s2p1d pattern {1111/21/2}
 Group   3 Type C   : 8s6p5d3f1g contracted to 8s6p4d3f1g pattern {11111111/111111/2111/111/1}

Atom   0O    basis set group =>   1
Atom   1H    basis set group =>   2
Atom   2C    basis set group =>   3
Atom   3H    basis set group =>   2
Atom   4H    basis set group =>   2
Atom   5H    basis set group =>   2
Atom   6O    basis set group =>   1
Atom   7H    basis set group =>   2
Atom   8C    basis set group =>   3
Atom   9H    basis set group =>   2
Atom  10H    basis set group =>   2
Atom  11H    basis set group =>   2
Atom  12O    basis set group =>   1
Atom  13H    basis set group =>   2
Atom  14C    basis set group =>   3
Atom  15H    basis set group =>   2
Atom  16H    basis set group =>   2
Atom  17H    basis set group =>   2
Atom  18O    basis set group =>   1
Atom  19H    basis set group =>   2
Atom  20C    basis set group =>   3
Atom  21H    basis set group =>   2
Atom  22H    basis set group =>   2
Atom  23H    basis set group =>   2
Atom  24O    basis set group =>   1
Atom  25H    basis set group =>   2
Atom  26C    basis set group =>   3
Atom  27H    basis set group =>   2
Atom  28H    basis set group =>   2
Atom  29H    basis set group =>   2
Atom  30O    basis set group =>   1
Atom  31H    basis set group =>   2
Atom  32C    basis set group =>   3
Atom  33H    basis set group =>   2
Atom  34H    basis set group =>   2
Atom  35H    basis set group =>   2
Atom  36O    basis set group =>   1
Atom  37H    basis set group =>   2
Atom  38C    basis set group =>   3
Atom  39H    basis set group =>   2
Atom  40H    basis set group =>   2
Atom  41H    basis set group =>   2
Atom  42O    basis set group =>   1
Atom  43H    basis set group =>   2
Atom  44C    basis set group =>   3
Atom  45H    basis set group =>   2
Atom  46H    basis set group =>   2
Atom  47H    basis set group =>   2
Atom  48O    basis set group =>   1
Atom  49H    basis set group =>   2
Atom  50C    basis set group =>   3
Atom  51H    basis set group =>   2
Atom  52H    basis set group =>   2
Atom  53H    basis set group =>   2
Atom  54O    basis set group =>   1
Atom  55H    basis set group =>   2
Atom  56C    basis set group =>   3
Atom  57H    basis set group =>   2
Atom  58H    basis set group =>   2
Atom  59H    basis set group =>   2
Atom  60O    basis set group =>   1
Atom  61H    basis set group =>   2
Atom  62C    basis set group =>   3
Atom  63H    basis set group =>   2
Atom  64H    basis set group =>   2
Atom  65H    basis set group =>   2
Atom  66O    basis set group =>   1
Atom  67H    basis set group =>   2
Atom  68C    basis set group =>   3
Atom  69H    basis set group =>   2
Atom  70H    basis set group =>   2
Atom  71H    basis set group =>   2
Atom  72O    basis set group =>   1
Atom  73H    basis set group =>   2
Atom  74C    basis set group =>   3
Atom  75H    basis set group =>   2
Atom  76H    basis set group =>   2
Atom  77H    basis set group =>   2
Atom  78O    basis set group =>   1
Atom  79H    basis set group =>   2
Atom  80C    basis set group =>   3
Atom  81H    basis set group =>   2
Atom  82H    basis set group =>   2
Atom  83H    basis set group =>   2
Atom  84O    basis set group =>   1
Atom  85H    basis set group =>   2
Atom  86C    basis set group =>   3
Atom  87H    basis set group =>   2
Atom  88H    basis set group =>   2
Atom  89H    basis set group =>   2
Atom  90O    basis set group =>   1
Atom  91H    basis set group =>   2
Atom  92C    basis set group =>   3
Atom  93H    basis set group =>   2
Atom  94H    basis set group =>   2
Atom  95H    basis set group =>   2
--------------------------------------------------------------------------
WARNING: There is at least non-excluded one OpenFabrics device found,
but there are no active ports detected (or Open MPI was unable to use
them).  This is most certainly not what you wanted.  Check your
cables, subnet manager configuration, etc.  The openib BTL will be
ignored for this job.

  Local host: smp-512-n1
--------------------------------------------------------------------------
--------------------------------------------------------------------------
WARNING: There is at least non-excluded one OpenFabrics device found,
but there are no active ports detected (or Open MPI was unable to use
them).  This is most certainly not what you wanted.  Check your
cables, subnet manager configuration, etc.  The openib BTL will be
ignored for this job.

  Local host: smp-512-n1
--------------------------------------------------------------------------
--------------------------------------------------------------------------
WARNING: There is at least non-excluded one OpenFabrics device found,
but there are no active ports detected (or Open MPI was unable to use
them).  This is most certainly not what you wanted.  Check your
cables, subnet manager configuration, etc.  The openib BTL will be
ignored for this job.

  Local host: smp-512-n1
--------------------------------------------------------------------------
--------------------------------------------------------------------------
WARNING: There is at least non-excluded one OpenFabrics device found,
but there are no active ports detected (or Open MPI was unable to use
them).  This is most certainly not what you wanted.  Check your
cables, subnet manager configuration, etc.  The openib BTL will be
ignored for this job.

  Local host: smp-512-n1
--------------------------------------------------------------------------
--------------------------------------------------------------------------
WARNING: There is at least non-excluded one OpenFabrics device found,
but there are no active ports detected (or Open MPI was unable to use
them).  This is most certainly not what you wanted.  Check your
cables, subnet manager configuration, etc.  The openib BTL will be
ignored for this job.

  Local host: smp-512-n1
--------------------------------------------------------------------------
--------------------------------------------------------------------------
WARNING: There is at least non-excluded one OpenFabrics device found,
but there are no active ports detected (or Open MPI was unable to use
them).  This is most certainly not what you wanted.  Check your
cables, subnet manager configuration, etc.  The openib BTL will be
ignored for this job.

  Local host: smp-512-n1
--------------------------------------------------------------------------
--------------------------------------------------------------------------
WARNING: There is at least non-excluded one OpenFabrics device found,
but there are no active ports detected (or Open MPI was unable to use
them).  This is most certainly not what you wanted.  Check your
cables, subnet manager configuration, etc.  The openib BTL will be
ignored for this job.

  Local host: smp-512-n1
--------------------------------------------------------------------------
--------------------------------------------------------------------------
WARNING: There is at least non-excluded one OpenFabrics device found,
but there are no active ports detected (or Open MPI was unable to use
them).  This is most certainly not what you wanted.  Check your
cables, subnet manager configuration, etc.  The openib BTL will be
ignored for this job.

  Local host: smp-512-n1
--------------------------------------------------------------------------
--------------------------------------------------------------------------
WARNING: There is at least non-excluded one OpenFabrics device found,
but there are no active ports detected (or Open MPI was unable to use
them).  This is most certainly not what you wanted.  Check your
cables, subnet manager configuration, etc.  The openib BTL will be
ignored for this job.

  Local host: smp-512-n1
--------------------------------------------------------------------------
--------------------------------------------------------------------------
WARNING: There is at least non-excluded one OpenFabrics device found,
but there are no active ports detected (or Open MPI was unable to use
them).  This is most certainly not what you wanted.  Check your
cables, subnet manager configuration, etc.  The openib BTL will be
ignored for this job.

  Local host: smp-512-n1
--------------------------------------------------------------------------
--------------------------------------------------------------------------
WARNING: There is at least non-excluded one OpenFabrics device found,
but there are no active ports detected (or Open MPI was unable to use
them).  This is most certainly not what you wanted.  Check your
cables, subnet manager configuration, etc.  The openib BTL will be
ignored for this job.

  Local host: smp-512-n1
--------------------------------------------------------------------------
--------------------------------------------------------------------------
WARNING: There is at least non-excluded one OpenFabrics device found,
but there are no active ports detected (or Open MPI was unable to use
them).  This is most certainly not what you wanted.  Check your
cables, subnet manager configuration, etc.  The openib BTL will be
ignored for this job.

  Local host: smp-512-n1
--------------------------------------------------------------------------


           ************************************************************
           *        Program running with 12 parallel MPI-processes    *
           *              working on a common directory               *
           ************************************************************
------------------------------------------------------------------------------
                           ORCA GTO INTEGRAL CALCULATION
------------------------------------------------------------------------------

                         BASIS SET STATISTICS AND STARTUP INFO

 # of primitive gaussian shells          ... 1024
 # of primitive gaussian functions       ... 1984
 # of contracted shells                  ...  608
 # of contracted basis functions         ... 1376
 Highest angular momentum                ...    3
 Maximum contraction depth               ...    6
 Integral package used                   ... LIBINT
 Integral threshhold            Thresh   ...  2.500e-11
 Primitive cut-off              TCut     ...  2.500e-12


------------------------------ INTEGRAL EVALUATION ----------------------------


 * One electron integrals 
 Pre-screening matrix                    ... done
 Shell pair data                         ... done (   0.029 sec)

--------------------------------------------------------------------------
WARNING: There is at least non-excluded one OpenFabrics device found,
but there are no active ports detected (or Open MPI was unable to use
them).  This is most certainly not what you wanted.  Check your
cables, subnet manager configuration, etc.  The openib BTL will be
ignored for this job.

  Local host: smp-512-n1
--------------------------------------------------------------------------
--------------------------------------------------------------------------
WARNING: There is at least non-excluded one OpenFabrics device found,
but there are no active ports detected (or Open MPI was unable to use
them).  This is most certainly not what you wanted.  Check your
cables, subnet manager configuration, etc.  The openib BTL will be
ignored for this job.

  Local host: smp-512-n1
--------------------------------------------------------------------------
--------------------------------------------------------------------------
WARNING: There is at least non-excluded one OpenFabrics device found,
but there are no active ports detected (or Open MPI was unable to use
them).  This is most certainly not what you wanted.  Check your
cables, subnet manager configuration, etc.  The openib BTL will be
ignored for this job.

  Local host: smp-512-n1
--------------------------------------------------------------------------
--------------------------------------------------------------------------
WARNING: There is at least non-excluded one OpenFabrics device found,
but there are no active ports detected (or Open MPI was unable to use
them).  This is most certainly not what you wanted.  Check your
cables, subnet manager configuration, etc.  The openib BTL will be
ignored for this job.

  Local host: smp-512-n1
--------------------------------------------------------------------------
--------------------------------------------------------------------------
WARNING: There is at least non-excluded one OpenFabrics device found,
but there are no active ports detected (or Open MPI was unable to use
them).  This is most certainly not what you wanted.  Check your
cables, subnet manager configuration, etc.  The openib BTL will be
ignored for this job.

  Local host: smp-512-n1
--------------------------------------------------------------------------
--------------------------------------------------------------------------
WARNING: There is at least non-excluded one OpenFabrics device found,
but there are no active ports detected (or Open MPI was unable to use
them).  This is most certainly not what you wanted.  Check your
cables, subnet manager configuration, etc.  The openib BTL will be
ignored for this job.

  Local host: smp-512-n1
--------------------------------------------------------------------------
--------------------------------------------------------------------------
WARNING: There is at least non-excluded one OpenFabrics device found,
but there are no active ports detected (or Open MPI was unable to use
them).  This is most certainly not what you wanted.  Check your
cables, subnet manager configuration, etc.  The openib BTL will be
ignored for this job.

  Local host: smp-512-n1
--------------------------------------------------------------------------
--------------------------------------------------------------------------
WARNING: There is at least non-excluded one OpenFabrics device found,
but there are no active ports detected (or Open MPI was unable to use
them).  This is most certainly not what you wanted.  Check your
cables, subnet manager configuration, etc.  The openib BTL will be
ignored for this job.

  Local host: smp-512-n1
--------------------------------------------------------------------------
--------------------------------------------------------------------------
WARNING: There is at least non-excluded one OpenFabrics device found,
but there are no active ports detected (or Open MPI was unable to use
them).  This is most certainly not what you wanted.  Check your
cables, subnet manager configuration, etc.  The openib BTL will be
ignored for this job.

  Local host: smp-512-n1
--------------------------------------------------------------------------
--------------------------------------------------------------------------
WARNING: There is at least non-excluded one OpenFabrics device found,
but there are no active ports detected (or Open MPI was unable to use
them).  This is most certainly not what you wanted.  Check your
cables, subnet manager configuration, etc.  The openib BTL will be
ignored for this job.

  Local host: smp-512-n1
--------------------------------------------------------------------------
--------------------------------------------------------------------------
WARNING: There is at least non-excluded one OpenFabrics device found,
but there are no active ports detected (or Open MPI was unable to use
them).  This is most certainly not what you wanted.  Check your
cables, subnet manager configuration, etc.  The openib BTL will be
ignored for this job.

  Local host: smp-512-n1
--------------------------------------------------------------------------
--------------------------------------------------------------------------
WARNING: There is at least non-excluded one OpenFabrics device found,
but there are no active ports detected (or Open MPI was unable to use
them).  This is most certainly not what you wanted.  Check your
cables, subnet manager configuration, etc.  The openib BTL will be
ignored for this job.

  Local host: smp-512-n1
--------------------------------------------------------------------------


           ************************************************************
           *        Program running with 12 parallel MPI-processes    *
           *              working on a common directory               *
           ************************************************************
-------------------------------------------------------------------------------
                                 ORCA SCF
-------------------------------------------------------------------------------

------------
SCF SETTINGS
------------
Hamiltonian:
 Ab initio Hamiltonian  Method          .... Hartree-Fock(GTOs)


General Settings:
 Integral files         IntName         .... 16meoh.pires.deturi.dset-orca.engrad-mp2.def2tzvp
 Hartree-Fock type      HFTyp           .... RHF
 Total Charge           Charge          ....    0
 Multiplicity           Mult            ....    1
 Number of Electrons    NEL             ....  288
 Basis Dimension        Dim             .... 1376
 Nuclear Repulsion      ENuc            ....   4211.8346565607 Eh

Convergence Acceleration:
 DIIS                   CNVDIIS         .... on
   Start iteration      DIISMaxIt       ....    12
   Startup error        DIISStart       ....  0.200000
   # of expansion vecs  DIISMaxEq       ....     5
   Bias factor          DIISBfac        ....   1.050
   Max. coefficient     DIISMaxC        ....  10.000
 Newton-Raphson         CNVNR           .... off
 SOSCF                  CNVSOSCF        .... on
   Start iteration      SOSCFMaxIt      ....   150
   Startup grad/error   SOSCFStart      ....  0.003300
 Level Shifting         CNVShift        .... on
   Level shift para.    LevelShift      ....    0.2500
   Turn off err/grad.   ShiftErr        ....    0.0010
 Zerner damping         CNVZerner       .... off
 Static damping         CNVDamp         .... on
   Fraction old density DampFac         ....    0.7000
   Max. Damping (<1)    DampMax         ....    0.9800
   Min. Damping (>=0)   DampMin         ....    0.0000
   Turn off err/grad.   DampErr         ....    0.1000
 Fernandez-Rico         CNVRico         .... off

SCF Procedure:
 Maximum # iterations   MaxIter         ....   125
 SCF integral mode      SCFMode         .... Direct
   Integral package                     .... LIBINT
 Reset frequency        DirectResetFreq ....    20
 Integral Threshold     Thresh          ....  2.500e-11 Eh
 Primitive CutOff       TCut            ....  2.500e-12 Eh

Convergence Tolerance:
 Convergence Check Mode ConvCheckMode   .... Total+1el-Energy
 Convergence forced     ConvForced      .... 1
 Energy Change          TolE            ....  1.000e-08 Eh
 1-El. energy change                    ....  1.000e-05 Eh
 Orbital Gradient       TolG            ....  1.000e-05
 Orbital Rotation angle TolX            ....  1.000e-05
 DIIS Error             TolErr          ....  5.000e-07


Diagonalization of the overlap matrix:
Smallest eigenvalue                        ... 2.035e-04
Time for diagonalization                   ...    0.379 sec
Threshold for overlap eigenvalues          ... 1.000e-08
Number of eigenvalues below threshold      ... 0
Time for construction of square roots      ...    0.225 sec
Total time needed                          ...    0.608 sec

-------------------
DFT GRID GENERATION
-------------------

General Integration Accuracy     IntAcc      ...  4.340
Radial Grid Type                 RadialGrid  ... Gauss-Chebyshev
Angular Grid (max. acc.)         AngularGrid ... Lebedev-110
Angular grid pruning method      GridPruning ... 3 (G Style)
Weight generation scheme         WeightScheme... Becke
Basis function cutoff            BFCut       ...    1.0000e-11
Integration weight cutoff        WCut        ...    1.0000e-14
Grids for H and He will be reduced by one unit

# of grid points (after initial pruning)     ... 104768 (   0.0 sec)
# of grid points (after weights+screening)   ...  91612 (   0.5 sec)
nearest neighbour list constructed           ...    0.0 sec
Grid point re-assignment to atoms done       ...    0.0 sec
Grid point division into batches done        ...    0.1 sec
Reduced shell lists constructed in    0.3 sec

Total number of grid points                  ...    91612
Total number of batches                      ...     1477
Average number of points per batch           ...       62
Average number of grid points per atom       ...      954
Average number of shells per batch           ...   185.90 (30.58%)
Average number of basis functions per batch  ...   365.62 (26.57%)
Average number of large shells per batch     ...   103.36 (55.60%)
Average number of large basis fcns per batch ...   205.31 (56.16%)
Maximum spatial batch extension              ...  20.05, 16.12, 19.27 au
Average spatial batch extension              ...   0.25,  0.23,  0.24 au

Time for grid setup =    0.813 sec

------------------------------
INITIAL GUESS: MODEL POTENTIAL
------------------------------
Loading Hartree-Fock densities                     ... done
Calculating cut-offs                               ... done
Setting up the integral package                    ... done
Initializing the effective Hamiltonian             ... done
Starting the Coulomb interaction                   ... done (   0.8 sec)
Reading the grid                                   ... done
Mapping shells                                     ... done
Starting the XC term evaluation                    ... done (   0.2 sec)
Transforming the Hamiltonian                       ... done (   0.2 sec)
Diagonalizing the Hamiltonian                      ... done (   0.3 sec)
Back transforming the eigenvectors                 ... done (   0.1 sec)
Now organizing SCF variables                       ... done
                      ------------------
                      INITIAL GUESS DONE (   2.4 sec)
                      ------------------
--------------
SCF ITERATIONS
--------------
ITER       Energy         Delta-E        Max-DP      RMS-DP      [F,P]     Damp
               ***  Starting incremental Fock matrix formation  ***
  0  -1839.8937614033   0.000000000000 0.03339409  0.00033365  0.2910303 0.7000
  1  -1840.4683846297  -0.574623226368 0.02251402  0.00025420  0.2179278 0.7000
                               ***Turning on DIIS***
  2  -1840.8107268008  -0.342342171139 0.01377734  0.00016467  0.1620481 0.7000
  3  -1845.2394256630  -4.428698862165 0.00784413  0.00010324  0.1190992 0.7000
  4  -1844.5102967774   0.729128885540 0.01705768  0.00025961  0.0840542 0.0000
  5  -1841.6443975794   2.865899198025 0.00225336  0.00003542  0.0042163 0.0000
                      *** Initiating the SOSCF procedure ***
                           *** Shutting down DIIS ***
                      *** Re-Reading the Fockian *** 
                      *** Removing any level shift *** 
ITER      Energy       Delta-E        Grad      Rot      Max-DP    RMS-DP
  6  -1841.55021848   0.0941790972  0.000327  0.000327  0.001283  0.000018
               *** Restarting incremental Fock matrix formation ***
  7  -1841.52275895   0.0274595307  0.000151  0.000239  0.000723  0.000009
  8  -1841.52279371  -0.0000347574  0.000068  0.000207  0.000568  0.000007
  9  -1841.52280232  -0.0000086074  0.000021  0.000024  0.000118  0.000001
 10  -1841.52280275  -0.0000004288  0.000004  0.000008  0.000035  0.000000
                  ***Gradient check signals convergence***
              ***Rediagonalizing the Fockian in SOSCF/NRSCF***

               *****************************************************
               *                     SUCCESS                       *
               *           SCF CONVERGED AFTER  11 CYCLES          *
               *****************************************************


----------------
TOTAL SCF ENERGY
----------------

Total Energy       :        -1841.52280278 Eh          -50110.38303 eV

Components:
Nuclear Repulsion  :         4211.83465656 Eh          114609.84766 eV
Electronic Energy  :        -6053.35745934 Eh         -164720.23068 eV
One Electron Energy:       -10923.89045701 Eh         -297254.17145 eV
Two Electron Energy:         4870.53299767 Eh          132533.94076 eV

Virial components:
Potential Energy   :        -3681.09383086 Eh         -100167.65556 eV
Kinetic Energy     :         1839.57102808 Eh           50057.27254 eV
Virial Ratio       :            2.00106099


---------------
SCF CONVERGENCE
---------------

  Last Energy change         ...   -3.7589e-08  Tolerance :   1.0000e-08
  Last MAX-Density change    ...    8.4480e-06  Tolerance :   1.0000e-07
  Last RMS-Density change    ...    7.5640e-08  Tolerance :   5.0000e-09
  Last Orbital Gradient      ...    1.1941e-06  Tolerance :   1.0000e-05
  Last Orbital Rotation      ...    2.5589e-06  Tolerance :   1.0000e-05

             **** THE GBW FILE WAS UPDATED (16meoh.pires.deturi.dset-orca.engrad-mp2.def2tzvp.gbw) ****
             **** DENSITY FILE WAS UPDATED (16meoh.pires.deturi.dset-orca.engrad-mp2.def2tzvp.scfp) ****
             **** ENERGY FILE WAS UPDATED (16meoh.pires.deturi.dset-orca.engrad-mp2.def2tzvp.en.tmp) ****
             **** THE GBW FILE WAS UPDATED (16meoh.pires.deturi.dset-orca.engrad-mp2.def2tzvp.gbw) ****
             **** DENSITY FILE WAS UPDATED (16meoh.pires.deturi.dset-orca.engrad-mp2.def2tzvp.scfp) ****
----------------
ORBITAL ENERGIES
----------------

  NO   OCC          E(Eh)            E(eV) 
   0   2.0000     -20.564392      -559.5856 
   1   2.0000     -20.563200      -559.5531 
   2   2.0000     -20.561632      -559.5105 
   3   2.0000     -20.560435      -559.4779 
   4   2.0000     -20.555832      -559.3526 
   5   2.0000     -20.555361      -559.3398 
   6   2.0000     -20.553433      -559.2873 
   7   2.0000     -20.553110      -559.2786 
   8   2.0000     -20.551789      -559.2426 
   9   2.0000     -20.550587      -559.2099 
  10   2.0000     -20.549356      -559.1764 
  11   2.0000     -20.548638      -559.1569 
  12   2.0000     -20.545651      -559.0756 
  13   2.0000     -20.544679      -559.0491 
  14   2.0000     -20.544435      -559.0425 
  15   2.0000     -20.541860      -558.9724 
  16   2.0000     -11.282086      -307.0012 
  17   2.0000     -11.279673      -306.9355 
  18   2.0000     -11.278649      -306.9076 
  19   2.0000     -11.277128      -306.8663 
  20   2.0000     -11.274268      -306.7884 
  21   2.0000     -11.270731      -306.6922 
  22   2.0000     -11.269072      -306.6470 
  23   2.0000     -11.268172      -306.6226 
  24   2.0000     -11.267073      -306.5926 
  25   2.0000     -11.266481      -306.5765 
  26   2.0000     -11.265346      -306.5456 
  27   2.0000     -11.261515      -306.4414 
  28   2.0000     -11.260803      -306.4220 
  29   2.0000     -11.260793      -306.4217 
  30   2.0000     -11.255676      -306.2825 
  31   2.0000     -11.252988      -306.2094 
  32   2.0000      -1.381123       -37.5823 
  33   2.0000      -1.374907       -37.4131 
  34   2.0000      -1.371145       -37.3108 
  35   2.0000      -1.368841       -37.2480 
  36   2.0000      -1.366318       -37.1794 
  37   2.0000      -1.363377       -37.0994 
  38   2.0000      -1.362072       -37.0639 
  39   2.0000      -1.358370       -36.9631 
  40   2.0000      -1.357570       -36.9414 
  41   2.0000      -1.353001       -36.8170 
  42   2.0000      -1.351904       -36.7872 
  43   2.0000      -1.348814       -36.7031 
  44   2.0000      -1.346324       -36.6353 
  45   2.0000      -1.343840       -36.5678 
  46   2.0000      -1.339838       -36.4588 
  47   2.0000      -1.335712       -36.3466 
  48   2.0000      -0.938002       -25.5243 
  49   2.0000      -0.931370       -25.3439 
  50   2.0000      -0.929034       -25.2803 
  51   2.0000      -0.926788       -25.2192 
  52   2.0000      -0.924581       -25.1591 
  53   2.0000      -0.923938       -25.1416 
  54   2.0000      -0.922429       -25.1006 
  55   2.0000      -0.920158       -25.0388 
  56   2.0000      -0.916742       -24.9458 
  57   2.0000      -0.916339       -24.9348 
  58   2.0000      -0.915118       -24.9016 
  59   2.0000      -0.914624       -24.8882 
  60   2.0000      -0.912545       -24.8316 
  61   2.0000      -0.907098       -24.6834 
  62   2.0000      -0.905619       -24.6431 
  63   2.0000      -0.902415       -24.5560 
  64   2.0000      -0.730350       -19.8738 
  65   2.0000      -0.721159       -19.6237 
  66   2.0000      -0.718149       -19.5418 
  67   2.0000      -0.715233       -19.4625 
  68   2.0000      -0.711326       -19.3562 
  69   2.0000      -0.709497       -19.3064 
  70   2.0000      -0.705544       -19.1988 
  71   2.0000      -0.701779       -19.0964 
  72   2.0000      -0.699507       -19.0345 
  73   2.0000      -0.695964       -18.9381 
  74   2.0000      -0.694415       -18.8960 
  75   2.0000      -0.687720       -18.7138 
  76   2.0000      -0.686324       -18.6758 
  77   2.0000      -0.683564       -18.6007 
  78   2.0000      -0.680073       -18.5057 
  79   2.0000      -0.676029       -18.3957 
  80   2.0000      -0.639450       -17.4003 
  81   2.0000      -0.634798       -17.2737 
  82   2.0000      -0.632832       -17.2202 
  83   2.0000      -0.630225       -17.1493 
  84   2.0000      -0.627366       -17.0715 
  85   2.0000      -0.625182       -17.0121 
  86   2.0000      -0.623470       -16.9655 
  87   2.0000      -0.621378       -16.9086 
  88   2.0000      -0.619982       -16.8706 
  89   2.0000      -0.616970       -16.7886 
  90   2.0000      -0.616893       -16.7865 
  91   2.0000      -0.616131       -16.7658 
  92   2.0000      -0.614936       -16.7333 
  93   2.0000      -0.607557       -16.5325 
  94   2.0000      -0.607053       -16.5188 
  95   2.0000      -0.604517       -16.4497 
  96   2.0000      -0.602472       -16.3941 
  97   2.0000      -0.601806       -16.3760 
  98   2.0000      -0.599062       -16.3013 
  99   2.0000      -0.597353       -16.2548 
 100   2.0000      -0.595680       -16.2093 
 101   2.0000      -0.594414       -16.1748 
 102   2.0000      -0.590230       -16.0610 
 103   2.0000      -0.588846       -16.0233 
 104   2.0000      -0.586827       -15.9684 
 105   2.0000      -0.586364       -15.9558 
 106   2.0000      -0.584405       -15.9025 
 107   2.0000      -0.583827       -15.8867 
 108   2.0000      -0.582910       -15.8618 
 109   2.0000      -0.579946       -15.7811 
 110   2.0000      -0.576773       -15.6948 
 111   2.0000      -0.571974       -15.5642 
 112   2.0000      -0.535598       -14.5744 
 113   2.0000      -0.529486       -14.4081 
 114   2.0000      -0.523024       -14.2322 
 115   2.0000      -0.521814       -14.1993 
 116   2.0000      -0.520188       -14.1550 
 117   2.0000      -0.517819       -14.0906 
 118   2.0000      -0.512995       -13.9593 
 119   2.0000      -0.509587       -13.8666 
 120   2.0000      -0.507663       -13.8142 
 121   2.0000      -0.501752       -13.6534 
 122   2.0000      -0.500351       -13.6152 
 123   2.0000      -0.495459       -13.4821 
 124   2.0000      -0.491795       -13.3824 
 125   2.0000      -0.489798       -13.3281 
 126   2.0000      -0.485202       -13.2030 
 127   2.0000      -0.483785       -13.1645 
 128   2.0000      -0.463791       -12.6204 
 129   2.0000      -0.458747       -12.4831 
 130   2.0000      -0.455891       -12.4054 
 131   2.0000      -0.452191       -12.3047 
 132   2.0000      -0.450558       -12.2603 
 133   2.0000      -0.449931       -12.2433 
 134   2.0000      -0.448168       -12.1953 
 135   2.0000      -0.447595       -12.1797 
 136   2.0000      -0.446180       -12.1412 
 137   2.0000      -0.445086       -12.1114 
 138   2.0000      -0.444660       -12.0998 
 139   2.0000      -0.443023       -12.0553 
 140   2.0000      -0.439839       -11.9686 
 141   2.0000      -0.435651       -11.8547 
 142   2.0000      -0.432611       -11.7720 
 143   2.0000      -0.429051       -11.6751 
 144   0.0000       0.117987         3.2106 
 145   0.0000       0.131001         3.5647 
 146   0.0000       0.134416         3.6577 
 147   0.0000       0.141624         3.8538 
 148   0.0000       0.146335         3.9820 
 149   0.0000       0.149100         4.0572 
 150   0.0000       0.156580         4.2608 
 151   0.0000       0.160155         4.3580 
 152   0.0000       0.161512         4.3950 
 153   0.0000       0.168795         4.5931 
 154   0.0000       0.172511         4.6943 
 155   0.0000       0.176480         4.8023 
 156   0.0000       0.177306         4.8247 
 157   0.0000       0.182804         4.9744 
 158   0.0000       0.186580         5.0771 
 159   0.0000       0.187622         5.1054 
 160   0.0000       0.192720         5.2442 
 161   0.0000       0.197685         5.3793 
 162   0.0000       0.199452         5.4274 
 163   0.0000       0.201921         5.4945 
 164   0.0000       0.206084         5.6078 
 165   0.0000       0.207195         5.6381 
 166   0.0000       0.211835         5.7643 
 167   0.0000       0.212443         5.7809 
 168   0.0000       0.214480         5.8363 
 169   0.0000       0.216113         5.8807 
 170   0.0000       0.216844         5.9006 
 171   0.0000       0.219912         5.9841 
 172   0.0000       0.223390         6.0788 
 173   0.0000       0.225966         6.1488 
 174   0.0000       0.228120         6.2075 
 175   0.0000       0.230876         6.2825 
 176   0.0000       0.232071         6.3150 
 177   0.0000       0.235279         6.4023 
 178   0.0000       0.238212         6.4821 
 179   0.0000       0.240904         6.5553 
 180   0.0000       0.243740         6.6325 
 181   0.0000       0.245344         6.6761 
 182   0.0000       0.249076         6.7777 
 183   0.0000       0.250389         6.8134 
 184   0.0000       0.251705         6.8492 
 185   0.0000       0.254651         6.9294 
 186   0.0000       0.256148         6.9701 
 187   0.0000       0.259288         7.0556 
 188   0.0000       0.262782         7.1507 
 189   0.0000       0.266029         7.2390 
 190   0.0000       0.268210         7.2984 
 191   0.0000       0.270980         7.3737 
 192   0.0000       0.272423         7.4130 
 193   0.0000       0.273926         7.4539 
 194   0.0000       0.275657         7.5010 
 195   0.0000       0.287819         7.8320 
 196   0.0000       0.289143         7.8680 
 197   0.0000       0.289553         7.8791 
 198   0.0000       0.296420         8.0660 
 199   0.0000       0.299340         8.1454 
 200   0.0000       0.301474         8.2035 
 201   0.0000       0.307177         8.3587 
 202   0.0000       0.311298         8.4709 
 203   0.0000       0.313430         8.5289 
 204   0.0000       0.317438         8.6379 
 205   0.0000       0.320813         8.7298 
 206   0.0000       0.321362         8.7447 
 207   0.0000       0.324306         8.8248 
 208   0.0000       0.327094         8.9007 
 209   0.0000       0.329222         8.9586 
 210   0.0000       0.330582         8.9956 
 211   0.0000       0.336435         9.1549 
 212   0.0000       0.338081         9.1996 
 213   0.0000       0.339691         9.2435 
 214   0.0000       0.343901         9.3580 
 215   0.0000       0.344458         9.3732 
 216   0.0000       0.348192         9.4748 
[...]
 92 C      6.1619     6.0000    -0.1619     4.0067     3.7250     0.2817
 93 H      0.8608     1.0000     0.1392     0.9710     0.9248     0.0461
 94 H      0.8744     1.0000     0.1256     0.9670     0.9195     0.0475
 95 H      0.9303     1.0000     0.0697     0.9378     0.8847     0.0532

  Mayer bond orders larger than 0.100000
B(  0-O ,  1-H ) :   0.7519 B(  0-O ,  2-C ) :   0.8797 B(  1-H , 36-O ) :   0.1032 
B(  2-C ,  3-H ) :   0.9415 B(  2-C ,  4-H ) :   0.9384 B(  2-C ,  5-H ) :   0.9353 
B(  6-O ,  7-H ) :   0.7606 B(  6-O ,  8-C ) :   0.8828 B(  8-C ,  9-H ) :   0.9423 
B(  8-C , 10-H ) :   0.9490 B(  8-C , 11-H ) :   0.9318 B( 12-O , 13-H ) :   0.7682 
B( 12-O , 14-C ) :   0.8779 B( 12-O , 25-H ) :   0.1000 B( 14-C , 15-H ) :   0.9420 
B( 14-C , 16-H ) :   0.9319 B( 14-C , 17-H ) :   0.9408 B( 18-O , 19-H ) :   0.7492 
B( 18-O , 20-C ) :   0.8941 B( 18-O , 43-H ) :   0.1018 B( 19-H , 30-O ) :   0.1015 
B( 20-C , 21-H ) :   0.9471 B( 20-C , 22-H ) :   0.9406 B( 20-C , 23-H ) :   0.9369 
B( 24-O , 25-H ) :   0.7577 B( 24-O , 26-C ) :   0.8851 B( 24-O , 31-H ) :   0.1138 
B( 26-C , 27-H ) :   0.9378 B( 26-C , 28-H ) :   0.9317 B( 26-C , 29-H ) :   0.9451 
B( 30-O , 31-H ) :   0.7505 B( 30-O , 32-C ) :   0.8857 B( 32-C , 33-H ) :   0.9427 
B( 32-C , 34-H ) :   0.9399 B( 32-C , 35-H ) :   0.9377 B( 36-O , 37-H ) :   0.7639 
B( 36-O , 38-C ) :   0.8741 B( 38-C , 39-H ) :   0.9427 B( 38-C , 40-H ) :   0.9361 
B( 38-C , 41-H ) :   0.9409 B( 42-O , 43-H ) :   0.7496 B( 42-O , 44-C ) :   0.8798 
B( 42-O , 73-H ) :   0.1013 B( 44-C , 45-H ) :   0.9366 B( 44-C , 46-H ) :   0.9345 
B( 44-C , 47-H ) :   0.9442 B( 48-O , 49-H ) :   0.7639 B( 48-O , 50-C ) :   0.8907 
B( 50-C , 51-H ) :   0.9401 B( 50-C , 52-H ) :   0.9354 B( 50-C , 53-H ) :   0.9342 
B( 54-O , 55-H ) :   0.7412 B( 54-O , 56-C ) :   0.8791 B( 56-C , 57-H ) :   0.9419 
B( 56-C , 58-H ) :   0.9368 B( 56-C , 59-H ) :   0.9316 B( 60-O , 61-H ) :   0.7627 
B( 60-O , 62-C ) :   0.8845 B( 60-O , 67-H ) :   0.1203 B( 62-C , 63-H ) :   0.9427 
B( 62-C , 64-H ) :   0.9382 B( 62-C , 65-H ) :   0.9384 B( 66-O , 67-H ) :   0.7446 
B( 66-O , 68-C ) :   0.8918 B( 68-C , 69-H ) :   0.9438 B( 68-C , 70-H ) :   0.9353 
B( 68-C , 71-H ) :   0.9435 B( 72-O , 73-H ) :   0.7404 B( 72-O , 74-C ) :   0.8871 
B( 72-O , 79-H ) :   0.1179 B( 74-C , 75-H ) :   0.9401 B( 74-C , 76-H ) :   0.9436 
B( 74-C , 77-H ) :   0.9394 B( 78-O , 79-H ) :   0.7485 B( 78-O , 80-C ) :   0.8823 
B( 78-O , 85-H ) :   0.1105 B( 80-C , 81-H ) :   0.9466 B( 80-C , 82-H ) :   0.9350 
B( 80-C , 83-H ) :   0.9388 B( 84-O , 85-H ) :   0.7441 B( 84-O , 86-C ) :   0.8750 
B( 84-O , 91-H ) :   0.1025 B( 86-C , 87-H ) :   0.9441 B( 86-C , 88-H ) :   0.9383 
B( 86-C , 89-H ) :   0.9376 B( 90-O , 91-H ) :   0.7586 B( 90-O , 92-C ) :   0.8851 
B( 92-C , 93-H ) :   0.9457 B( 92-C , 94-H ) :   0.9409 B( 92-C , 95-H ) :   0.9341 



-------
TIMINGS
-------

Total time                : 3768.181 sec
Integral trafo            :   32.183 sec (  0.9%)
FC preparation            :   75.700 sec (  2.0%)
I/O of integrals          :    0.283 sec (  0.0%)
K(i,j) Operators          :  233.426 sec (  6.2%)
T(i,j) pair energies      :   16.945 sec (  0.4%)
V-calculation             :    0.073 sec (  0.0%)
V**(-1/2)                 :    1.269 sec (  0.0%)
Gamma(ia|P)               :  225.876 sec (  6.0%)
Gamma-Trafo               :   13.377 sec (  0.4%)
D(virtual)                :    8.348 sec (  0.2%)
D(internal)               :  495.288 sec ( 13.1%)
W(virtual)                :   16.708 sec (  0.4%)
W(internal)               :  825.867 sec ( 21.9%)
L(virtual)                :  128.956 sec (  3.4%)
L(internal)               :    4.227 sec (  0.1%)
G(D)                      :   93.667 sec (  2.5%)
G(Z)                      :   98.782 sec (  2.6%)
Z-Vector Solution         :  676.466 sec ( 18.0%)
3-Index Derivative        :  192.681 sec (  5.1%)
2-Index Derivative        :    1.595 sec (  0.0%)
Separable Gradient        :  267.172 sec (  7.1%)


---------------------------------------
MP2 TOTAL ENERGY:    -1848.324309956 Eh
---------------------------------------

The final MP2 gradient
  0:  -0.00367374  -0.00165048   0.01532369
  1:   0.00187357  -0.00720921  -0.00078124
  2:   0.00305993   0.00294247  -0.00971161
  3:  -0.00063295   0.00607398   0.00113366
  4:   0.00492809  -0.00038040  -0.00047844
  5:  -0.00262468  -0.00009347  -0.00230744
  6:  -0.01229999   0.00636202  -0.00512464
  7:   0.00179348  -0.00479485  -0.00544131
  8:   0.00464293  -0.00574922   0.00610932
  9:  -0.00201222   0.00299104   0.00514309
 10:  -0.00023088  -0.00352289  -0.00014384
 11:   0.01084260   0.00517433  -0.00296892
 12:   0.00626394   0.01163562   0.00727218
 13:   0.00199048  -0.00540979   0.00312003
 14:  -0.00762629  -0.00598963  -0.00371961
 15:  -0.00085648   0.00462586  -0.00434092
 16:   0.00119923  -0.00215645  -0.00227623
 17:  -0.00209706  -0.00028582   0.00138384
 18:   0.00741573  -0.00653879  -0.00930686
 19:  -0.00528190   0.00340107  -0.00518647
 20:  -0.00255388   0.00844508   0.00685529
 21:   0.01093435  -0.00918090   0.00123754
 22:   0.00038424   0.00249612   0.00060158
 23:  -0.01131603  -0.00158140   0.00400931
 24:   0.00514883  -0.00275879  -0.01182977
 25:  -0.00051868  -0.00782431   0.00218550
 26:  -0.00484804   0.00560526   0.00878553
 27:   0.01113184   0.00448524  -0.00539548
 28:  -0.01192822  -0.00283259  -0.00057708
 29:   0.00112041  -0.00086660   0.00350763
 30:   0.01198472   0.00728204   0.00616090
 31:  -0.00213113   0.00382396  -0.00389059
 32:  -0.00897309  -0.00407987  -0.00159186
 33:   0.00284925  -0.00488992   0.00339379
 34:  -0.00210977   0.00116850   0.00146498
 35:  -0.00014069  -0.00227439  -0.00235584
 36:   0.01263294   0.01173229  -0.00162666
 37:   0.00327293  -0.00515120  -0.00219104
 38:  -0.00982456  -0.00920758  -0.00142134
 39:  -0.00411469   0.00797299  -0.00123090
 40:   0.00009910  -0.00117245  -0.00374985
 41:   0.00054449  -0.00663928   0.01288376
 42:   0.00073021  -0.01290931   0.00957856
 43:   0.00272008   0.00364667   0.00258096
 44:  -0.00088345   0.01261863  -0.00608817
 45:  -0.01063462  -0.01265495  -0.00099825
 46:  -0.00014441   0.00139045   0.00162438
 47:   0.00123780   0.00084357  -0.00333181
 48:  -0.01326002   0.00595765   0.00185692
 49:   0.00356806   0.00534875   0.00164031
 50:   0.00858287  -0.00892665   0.00230075
 51:  -0.00699633   0.00019100  -0.01171549
 52:   0.00944987   0.00714397  -0.00047582
 53:  -0.00121640  -0.00264723   0.00120720
 54:   0.00145616   0.00281392  -0.01452519
 55:   0.00585924   0.00027127   0.00213637
 56:  -0.00326011  -0.00089950   0.00696773
 57:  -0.00698058   0.00120469  -0.00077451
 58:   0.00154667  -0.00111554   0.00233562
 59:   0.00289200   0.00212064   0.00275372
 60:  -0.01038362  -0.00814765  -0.00080060
 61:   0.00424193  -0.00424217   0.00434234
 62:   0.00813622   0.00522595  -0.00058497
 63:  -0.00351977   0.00319843  -0.00487365
 64:   0.00029891   0.00181153   0.00163237
 65:   0.00216388  -0.00087155  -0.00126766
 66:  -0.00993276   0.01001969   0.00312735
 67:  -0.00331788  -0.00337515  -0.00430997
 68:   0.00652239  -0.00762777  -0.00159919
 69:   0.00263180   0.00399823   0.00629513
 70:  -0.00042933  -0.00256879   0.00062643
 71:   0.00207054   0.00004705  -0.00161227
 72:   0.00540615  -0.00257742  -0.01239624
 73:   0.00255734   0.00656273  -0.00004041
 74:  -0.00337695  -0.00026183   0.00825197
 75:  -0.00104160  -0.00652224   0.00002838
 76:   0.00114371  -0.00080381   0.00274764
 77:  -0.00855252   0.00866146  -0.00008070
 78:   0.01035317  -0.00980231   0.00407935
 79:  -0.00312731  -0.00281547  -0.00576682
 80:  -0.00254673   0.00894226  -0.00472662
 81:   0.00364316   0.00407908   0.00375861
 82:  -0.00053068   0.00035931  -0.00226930
 83:  -0.00930951  -0.00465838   0.00805854
 84:  -0.00100717   0.00461087   0.01478662
 85:   0.00634671  -0.00202186  -0.00115518
 86:   0.00034088  -0.00029489  -0.00982087
 87:  -0.00692565  -0.00017371   0.00069799
 88:   0.00058513   0.00239496  -0.00121461
 89:  -0.00016167  -0.00219289  -0.00179620
 90:  -0.00492521  -0.01398025   0.00137747
 91:   0.00541527  -0.00072253  -0.00481306
 92:   0.00471711   0.00639519   0.00349836
 93:  -0.00465821   0.00131450   0.00429345
 94:   0.00177711   0.00063995   0.00180068
 95:   0.00241003   0.00702386  -0.01027131

-----------------------------------
NORM OF THE MP2 GRADIENT:  0.095308
-----------------------------------

-------------------------   --------------------
FINAL SINGLE POINT ENERGY     -1848.324309955536
-------------------------   --------------------


                            ***************************************
                            *     ORCA property calculations      *
                            ***************************************

                                    ---------------------
                                    Active property flags
                                    ---------------------
   (+) Dipole Moment


------------------------------------------------------------------------------
                       ORCA ELECTRIC PROPERTIES CALCULATION
------------------------------------------------------------------------------

Dipole Moment Calculation                       ... on
Quadrupole Moment Calculation                   ... off
Polarizability Calculation                      ... off
GBWName                                         ... 16meoh.pires.deturi.dset-orca.engrad-mp2.def2tzvp.gbw
Electron density file                           ... 16meoh.pires.deturi.dset-orca.engrad-mp2.def2tzvp.scfp
The origin for moment calculation is the CENTER OF MASS  = (-0.024199,  0.018738  0.013195)

-------------
DIPOLE MOMENT
-------------
                                X             Y             Z
Electronic contribution:     -4.98081       4.01486       2.99849
Nuclear contribution   :      6.96944      -5.39657      -3.80012
                        -----------------------------------------
Total Dipole Moment    :      1.98863      -1.38171      -0.80163
                        -----------------------------------------
Magnitude (a.u.)       :      2.55076
Magnitude (Debye)      :      6.48352



--------------------
Rotational spectrum 
--------------------
 
Rotational constants in cm-1:     0.003197     0.002064     0.001550 
Rotational constants in MHz :    95.837576    61.863419    46.455485 

 Dipole components along the rotational axes: 
x,y,z [a.u.] :    -2.414507     0.396862    -0.720447 
x,y,z [Debye]:    -6.137188     1.008744    -1.831231 

 

                         *** MP2 UNRELAXED DENSITY ***

------------------------------------------------------------------------------
                       ORCA ELECTRIC PROPERTIES CALCULATION
------------------------------------------------------------------------------

Dipole Moment Calculation                       ... on
Quadrupole Moment Calculation                   ... off
Polarizability Calculation                      ... off
GBWName                                         ... 16meoh.pires.deturi.dset-orca.engrad-mp2.def2tzvp.gbw
Electron density file                           ... 16meoh.pires.deturi.dset-orca.engrad-mp2.def2tzvp.pmp2ur
The origin for moment calculation is the CENTER OF MASS  = (-0.024199,  0.018738  0.013195)

-------------
DIPOLE MOMENT
-------------
                                X             Y             Z
Electronic contribution:     -5.02822       4.05338       3.02629
Nuclear contribution   :      6.96944      -5.39657      -3.80012
                        -----------------------------------------
Total Dipole Moment    :      1.94122      -1.34319      -0.77384
                        -----------------------------------------
Magnitude (a.u.)       :      2.48421
Magnitude (Debye)      :      6.31436



--------------------
Rotational spectrum 
--------------------
 
Rotational constants in cm-1:     0.003197     0.002064     0.001550 
Rotational constants in MHz :    95.837576    61.863419    46.455485 

 Dipole components along the rotational axes: 
x,y,z [a.u.] :    -2.352713     0.391523    -0.694805 
x,y,z [Debye]:    -5.980121     0.995173    -1.766054 

 

                           *** MP2 RELAXED DENSITY ***

------------------------------------------------------------------------------
                       ORCA ELECTRIC PROPERTIES CALCULATION
------------------------------------------------------------------------------

Dipole Moment Calculation                       ... on
Quadrupole Moment Calculation                   ... off
Polarizability Calculation                      ... off
GBWName                                         ... 16meoh.pires.deturi.dset-orca.engrad-mp2.def2tzvp.gbw
Electron density file                           ... 16meoh.pires.deturi.dset-orca.engrad-mp2.def2tzvp.pmp2re
The origin for moment calculation is the CENTER OF MASS  = (-0.024199,  0.018738  0.013195)

-------------
DIPOLE MOMENT
-------------
                                X             Y             Z
Electronic contribution:     -5.08382       4.10381       3.05845
Nuclear contribution   :      6.96944      -5.39657      -3.80012
                        -----------------------------------------
Total Dipole Moment    :      1.88562      -1.29276      -0.74168
                        -----------------------------------------
Magnitude (a.u.)       :      2.40351
Magnitude (Debye)      :      6.10923



--------------------
Rotational spectrum 
--------------------
 
Rotational constants in cm-1:     0.003197     0.002064     0.001550 
Rotational constants in MHz :    95.837576    61.863419    46.455485 

 Dipole components along the rotational axes: 
x,y,z [a.u.] :    -2.276581     0.388997    -0.665367 
x,y,z [Debye]:    -5.786610     0.988753    -1.691228 

 
--------------------------------------------------------------------------
WARNING: There is at least non-excluded one OpenFabrics device found,
but there are no active ports detected (or Open MPI was unable to use
them).  This is most certainly not what you wanted.  Check your
cables, subnet manager configuration, etc.  The openib BTL will be
ignored for this job.

  Local host: smp-512-n1
--------------------------------------------------------------------------
--------------------------------------------------------------------------
WARNING: There is at least non-excluded one OpenFabrics device found,
but there are no active ports detected (or Open MPI was unable to use
them).  This is most certainly not what you wanted.  Check your
cables, subnet manager configuration, etc.  The openib BTL will be
ignored for this job.

  Local host: smp-512-n1
--------------------------------------------------------------------------
--------------------------------------------------------------------------
WARNING: There is at least non-excluded one OpenFabrics device found,
but there are no active ports detected (or Open MPI was unable to use
them).  This is most certainly not what you wanted.  Check your
cables, subnet manager configuration, etc.  The openib BTL will be
ignored for this job.

  Local host: smp-512-n1
--------------------------------------------------------------------------
--------------------------------------------------------------------------
WARNING: There is at least non-excluded one OpenFabrics device found,
but there are no active ports detected (or Open MPI was unable to use
them).  This is most certainly not what you wanted.  Check your
cables, subnet manager configuration, etc.  The openib BTL will be
ignored for this job.

  Local host: smp-512-n1
--------------------------------------------------------------------------
--------------------------------------------------------------------------
WARNING: There is at least non-excluded one OpenFabrics device found,
but there are no active ports detected (or Open MPI was unable to use
them).  This is most certainly not what you wanted.  Check your
cables, subnet manager configuration, etc.  The openib BTL will be
ignored for this job.

  Local host: smp-512-n1
--------------------------------------------------------------------------
--------------------------------------------------------------------------
WARNING: There is at least non-excluded one OpenFabrics device found,
but there are no active ports detected (or Open MPI was unable to use
them).  This is most certainly not what you wanted.  Check your
cables, subnet manager configuration, etc.  The openib BTL will be
ignored for this job.

  Local host: smp-512-n1
--------------------------------------------------------------------------
--------------------------------------------------------------------------
WARNING: There is at least non-excluded one OpenFabrics device found,
but there are no active ports detected (or Open MPI was unable to use
them).  This is most certainly not what you wanted.  Check your
cables, subnet manager configuration, etc.  The openib BTL will be
ignored for this job.

  Local host: smp-512-n1
--------------------------------------------------------------------------
--------------------------------------------------------------------------
WARNING: There is at least non-excluded one OpenFabrics device found,
but there are no active ports detected (or Open MPI was unable to use
them).  This is most certainly not what you wanted.  Check your
cables, subnet manager configuration, etc.  The openib BTL will be
ignored for this job.

  Local host: smp-512-n1
--------------------------------------------------------------------------
--------------------------------------------------------------------------
WARNING: There is at least non-excluded one OpenFabrics device found,
but there are no active ports detected (or Open MPI was unable to use
them).  This is most certainly not what you wanted.  Check your
cables, subnet manager configuration, etc.  The openib BTL will be
ignored for this job.

  Local host: smp-512-n1
--------------------------------------------------------------------------
--------------------------------------------------------------------------
WARNING: There is at least non-excluded one OpenFabrics device found,
but there are no active ports detected (or Open MPI was unable to use
them).  This is most certainly not what you wanted.  Check your
cables, subnet manager configuration, etc.  The openib BTL will be
ignored for this job.

  Local host: smp-512-n1
--------------------------------------------------------------------------
--------------------------------------------------------------------------
WARNING: There is at least non-excluded one OpenFabrics device found,
but there are no active ports detected (or Open MPI was unable to use
them).  This is most certainly not what you wanted.  Check your
cables, subnet manager configuration, etc.  The openib BTL will be
ignored for this job.

  Local host: smp-512-n1
--------------------------------------------------------------------------
--------------------------------------------------------------------------
WARNING: There is at least non-excluded one OpenFabrics device found,
but there are no active ports detected (or Open MPI was unable to use
them).  This is most certainly not what you wanted.  Check your
cables, subnet manager configuration, etc.  The openib BTL will be
ignored for this job.

  Local host: smp-512-n1
--------------------------------------------------------------------------

Timings for individual modules:

Sum of individual times         ...     4700.923 sec (=  78.349 min)
GTO integral calculation        ...        6.395 sec (=   0.107 min)   0.1 %
SCF iterations                  ...      922.675 sec (=  15.378 min)  19.6 %
MP2 module                      ...     3771.853 sec (=  62.864 min)  80.2 %
                             ****ORCA TERMINATED NORMALLY****
TOTAL RUN TIME: 0 days 1 hours 18 minutes 25 seconds 152 msec
