
                                 *****************
                                 * O   R   C   A *
                                 *****************

           --- An Ab Initio, DFT and Semiempirical electronic structure package ---

                  #######################################################
                  #                        -***-                        #
                  #          Department of theory and spectroscopy      #
                  #               Directorship: Frank Neese             #
                  #        Max Planck Institute fuer Kohlenforschung    #
                  #                Kaiser Wilhelm Platz 1               #
                  #                 D-45470 Muelheim/Ruhr               #
                  #                      Germany                        #
                  #                                                     #
                  #                  All rights reserved                #
                  #                        -***-                        #
                  #######################################################


                         Program Version 4.2.0 -  RELEASE  -


 With contributions from (in alphabetic order):
   Daniel Aravena         : Magnetic Suceptibility
   Michael Atanasov       : Ab Initio Ligand Field Theory (pilot matlab implementation)
   Alexander A. Auer      : GIAO ZORA, VPT2
   Ute Becker             : Parallelization
   Giovanni Bistoni       : ED, misc. LED, open-shell LED, HFLED
   Martin Brehm           : Molecular dynamics
   Dmytro Bykov           : SCF Hessian
   Vijay G. Chilkuri      : MRCI spin determinant printing, contributions to CSF-ICE
   Dipayan Datta          : RHF DLPNO-CCSD density
   Achintya Kumar Dutta   : EOM-CC, STEOM-CC
   Dmitry Ganyushin       : Spin-Orbit,Spin-Spin,Magnetic field MRCI
   Miquel Garcia          : C-PCM Hessian, Gaussian charge scheme
   Yang Guo               : DLPNO-NEVPT2, CIM, IAO-localization
   Andreas Hansen         : Spin unrestricted coupled pair/coupled cluster methods
   Benjamin Helmich-Paris : CASSCF linear response (MC-RPA)
   Lee Huntington         : MR-EOM, pCC
   Robert Izsak           : Overlap fitted RIJCOSX, COSX-SCS-MP3, EOM
   Christian Kollmar      : KDIIS, OOCD, Brueckner-CCSD(T), CCSD density
   Simone Kossmann        : Meta GGA functionals, TD-DFT gradient, OOMP2, MP2 Hessian
   Martin Krupicka        : AUTO-CI
   Lucas Lang             : DCDCAS
   Dagmar Lenk            : GEPOL surface, SMD
   Dimitrios Liakos       : Extrapolation schemes; Compound Job, initial MDCI parallelization
   Dimitrios Manganas     : Further ROCIS development; embedding schemes
   Dimitrios Pantazis     : SARC Basis sets
   Taras Petrenko         : DFT Hessian,TD-DFT gradient, ASA, ECA, R-Raman, ABS, FL, XAS/XES, NRVS
   Peter Pinski           : DLPNO-MP2, DLPNO-MP2 Gradient
   Christoph Reimann      : Effective Core Potentials
   Marius Retegan         : Local ZFS, SOC
   Christoph Riplinger    : Optimizer, TS searches, QM/MM, DLPNO-CCSD(T), (RO)-DLPNO pert. Triples
   Tobias Risthaus        : Range-separated hybrids, TD-DFT gradient, RPA, STAB
   Michael Roemelt        : Original ROCIS implementation
   Masaaki Saitow         : Open-shell DLPNO-CCSD energy and density
   Barbara Sandhoefer     : DKH picture change effects
   Avijit Sen             : IP-ROCIS
   Kantharuban Sivalingam : CASSCF convergence, NEVPT2, FIC-MRCI
   Bernardo de Souza      : ESD, SOC TD-DFT
   Georgi Stoychev        : AutoAux, RI-MP2 NMR
   Willem Van den Heuvel  : Paramagnetic NMR
   Boris Wezisla          : Elementary symmetry handling
   Frank Wennmohs         : Technical directorship


 We gratefully acknowledge several colleagues who have allowed us to
 interface, adapt or use parts of their codes:
   Stefan Grimme, W. Hujo, H. Kruse,             : VdW corrections, initial TS optimization,
                  C. Bannwarth                     DFT functionals, gCP, sTDA/sTD-DF
   Ed Valeev, F. Pavosevic, A. Kumar             : LibInt (2-el integral package), F12 methods
   Garnet Chan, S. Sharma, J. Yang, R. Olivares  : DMRG
   Ulf Ekstrom                                   : XCFun DFT Library
   Mihaly Kallay                                 : mrcc  (arbitrary order and MRCC methods)
   Andreas Klamt, Michael Diedenhofen            : otool_cosmo (COSMO solvation model)
   Jiri Pittner, Ondrej Demel                    : Mk-CCSD
   Frank Weinhold                                : gennbo (NPA and NBO analysis)
   Christopher J. Cramer and Donald G. Truhlar   : smd solvation model
   Lars Goerigk                                  : TD-DFT with DH, B97 family of functionals
   V. Asgeirsson, H. Jonsson                     : NEB implementation
   FAccTs GmbH                                   : IRC, NEB, NEB-TS, Multilevel, MM, QM/MM, CI optimization
   S Lehtola, MJT Oliveira, MAL Marques          : LibXC Library


 Your calculation uses the libint2 library for the computation of 2-el integrals
 For citations please refer to: http://libint.valeyev.net

 Your ORCA version has been built with support for libXC version: 4.2.3
 For citations please refer to: https://tddft.org/programs/libxc/

 This ORCA versions uses:
   CBLAS   interface :  Fast vector & matrix operations
   LAPACKE interface :  Fast linear algebra routines
   SCALAPACK package :  Parallel linear algebra routines


----- Orbital basis set information -----
Your calculation utilizes the basis: aug-cc-pVTZ 
    H, B-Ne : Obtained from the ccRepo (grant-hill.group.shef.ac.uk/ccrepo) Feb. 2017
              R. A. Kendall, T. H. Dunning, Jr., R. J. Harrison, J. Chem. Phys. 96, 6796 (1992)
         He : Obtained from the ccRepo (grant-hill.group.shef.ac.uk/ccrepo) Feb. 2017
              D. E. Woon, T. H. Dunning, Jr., J. Chem. Phys. 100, 2975 (1994)
  Li-Be, Na : Obtained from the ccRepo (grant-hill.group.shef.ac.uk/ccrepo) Feb. 2017
              B. P. Prascher, D. E. Woon, K. A. Peterson, T. H. Dunning, Jr., A. K. Wilson, Theor. Chem. Acc. 128, 69 (2011)
         Mg : Obtained from the Peterson Research Group Website (tyr0.chem.wsu.edu/~kipeters) Feb. 2017
              B. P. Prascher, D. E. Woon, K. A. Peterson, T. H. Dunning, Jr., A. K. Wilson, Theor. Chem. Acc. 128, 69 (2011)
      Al-Ar : Obtained from the ccRepo (grant-hill.group.shef.ac.uk/ccrepo) Feb. 2017
              D. E. Woon, T. H. Dunning, Jr., J. Chem. Phys. 98, 1358 (1993)
      Sc-Zn : Obtained from the ccRepo (grant-hill.group.shef.ac.uk/ccrepo) Feb. 2017
              N. B. Balabanov, K. A. Peterson, J. Chem. Phys. 123, 064107 (2005)
              N. B. Balabanov, K. A. Peterson, J. Chem. Phys. 125, 074110 (2006)
      Ga-Kr : Obtained from the ccRepo (grant-hill.group.shef.ac.uk/ccrepo) Feb. 2017
              A. K. Wilson, D. E. Woon, K. A. Peterson, T. H. Dunning, Jr., J. Chem. Phys. 110, 7667 (1999)
     Ag, Au : Obtained from the Peterson Research Group Website (tyr0.chem.wsu.edu/~kipeters) Feb. 2017
              K. A. Peterson, C. Puzzarini, Theor. Chem. Acc. 114, 283 (2005)

================================================================================
                                        WARNINGS
                       Please study these warnings very carefully!
================================================================================


WARNING: The frozen-core approximation for MP2-gradient calculations is turned on by default.

INFO   : the flag for use of LIBINT has been found!

----- Orbital basis set information -----
Your calculation utilizes the basis: aug-cc-pVTZ 
    H, B-Ne : Obtained from the ccRepo (grant-hill.group.shef.ac.uk/ccrepo) Feb. 2017
              R. A. Kendall, T. H. Dunning, Jr., R. J. Harrison, J. Chem. Phys. 96, 6796 (1992)
         He : Obtained from the ccRepo (grant-hill.group.shef.ac.uk/ccrepo) Feb. 2017
              D. E. Woon, T. H. Dunning, Jr., J. Chem. Phys. 100, 2975 (1994)
  Li-Be, Na : Obtained from the ccRepo (grant-hill.group.shef.ac.uk/ccrepo) Feb. 2017
              B. P. Prascher, D. E. Woon, K. A. Peterson, T. H. Dunning, Jr., A. K. Wilson, Theor. Chem. Acc. 128, 69 (2011)
         Mg : Obtained from the Peterson Research Group Website (tyr0.chem.wsu.edu/~kipeters) Feb. 2017
              B. P. Prascher, D. E. Woon, K. A. Peterson, T. H. Dunning, Jr., A. K. Wilson, Theor. Chem. Acc. 128, 69 (2011)
      Al-Ar : Obtained from the ccRepo (grant-hill.group.shef.ac.uk/ccrepo) Feb. 2017
              D. E. Woon, T. H. Dunning, Jr., J. Chem. Phys. 98, 1358 (1993)
      Sc-Zn : Obtained from the ccRepo (grant-hill.group.shef.ac.uk/ccrepo) Feb. 2017
              N. B. Balabanov, K. A. Peterson, J. Chem. Phys. 123, 064107 (2005)
              N. B. Balabanov, K. A. Peterson, J. Chem. Phys. 125, 074110 (2006)
      Ga-Kr : Obtained from the ccRepo (grant-hill.group.shef.ac.uk/ccrepo) Feb. 2017
              A. K. Wilson, D. E. Woon, K. A. Peterson, T. H. Dunning, Jr., J. Chem. Phys. 110, 7667 (1999)
     Ag, Au : Obtained from the Peterson Research Group Website (tyr0.chem.wsu.edu/~kipeters) Feb. 2017
              K. A. Peterson, C. Puzzarini, Theor. Chem. Acc. 114, 283 (2005)

================================================================================
                                        WARNINGS
                       Please study these warnings very carefully!
================================================================================


WARNING: The frozen-core approximation for MP2-gradient calculations is turned on by default.

INFO   : the flag for use of LIBINT has been found!

----- Orbital basis set information -----
Your calculation utilizes the basis: aug-cc-pVTZ 
    H, B-Ne : Obtained from the ccRepo (grant-hill.group.shef.ac.uk/ccrepo) Feb. 2017
              R. A. Kendall, T. H. Dunning, Jr., R. J. Harrison, J. Chem. Phys. 96, 6796 (1992)
         He : Obtained from the ccRepo (grant-hill.group.shef.ac.uk/ccrepo) Feb. 2017
              D. E. Woon, T. H. Dunning, Jr., J. Chem. Phys. 100, 2975 (1994)
  Li-Be, Na : Obtained from the ccRepo (grant-hill.group.shef.ac.uk/ccrepo) Feb. 2017
              B. P. Prascher, D. E. Woon, K. A. Peterson, T. H. Dunning, Jr., A. K. Wilson, Theor. Chem. Acc. 128, 69 (2011)
         Mg : Obtained from the Peterson Research Group Website (tyr0.chem.wsu.edu/~kipeters) Feb. 2017
              B. P. Prascher, D. E. Woon, K. A. Peterson, T. H. Dunning, Jr., A. K. Wilson, Theor. Chem. Acc. 128, 69 (2011)
      Al-Ar : Obtained from the ccRepo (grant-hill.group.shef.ac.uk/ccrepo) Feb. 2017
              D. E. Woon, T. H. Dunning, Jr., J. Chem. Phys. 98, 1358 (1993)
      Sc-Zn : Obtained from the ccRepo (grant-hill.group.shef.ac.uk/ccrepo) Feb. 2017
              N. B. Balabanov, K. A. Peterson, J. Chem. Phys. 123, 064107 (2005)
              N. B. Balabanov, K. A. Peterson, J. Chem. Phys. 125, 074110 (2006)
      Ga-Kr : Obtained from the ccRepo (grant-hill.group.shef.ac.uk/ccrepo) Feb. 2017
              A. K. Wilson, D. E. Woon, K. A. Peterson, T. H. Dunning, Jr., J. Chem. Phys. 110, 7667 (1999)
     Ag, Au : Obtained from the Peterson Research Group Website (tyr0.chem.wsu.edu/~kipeters) Feb. 2017
              K. A. Peterson, C. Puzzarini, Theor. Chem. Acc. 114, 283 (2005)

================================================================================
                                        WARNINGS
                       Please study these warnings very carefully!
================================================================================


WARNING: The frozen-core approximation for MP2-gradient calculations is turned on by default.

INFO   : the flag for use of LIBINT has been found!

----- Orbital basis set information -----
Your calculation utilizes the basis: aug-cc-pVTZ 
    H, B-Ne : Obtained from the ccRepo (grant-hill.group.shef.ac.uk/ccrepo) Feb. 2017
              R. A. Kendall, T. H. Dunning, Jr., R. J. Harrison, J. Chem. Phys. 96, 6796 (1992)
         He : Obtained from the ccRepo (grant-hill.group.shef.ac.uk/ccrepo) Feb. 2017
              D. E. Woon, T. H. Dunning, Jr., J. Chem. Phys. 100, 2975 (1994)
  Li-Be, Na : Obtained from the ccRepo (grant-hill.group.shef.ac.uk/ccrepo) Feb. 2017
              B. P. Prascher, D. E. Woon, K. A. Peterson, T. H. Dunning, Jr., A. K. Wilson, Theor. Chem. Acc. 128, 69 (2011)
         Mg : Obtained from the Peterson Research Group Website (tyr0.chem.wsu.edu/~kipeters) Feb. 2017
              B. P. Prascher, D. E. Woon, K. A. Peterson, T. H. Dunning, Jr., A. K. Wilson, Theor. Chem. Acc. 128, 69 (2011)
      Al-Ar : Obtained from the ccRepo (grant-hill.group.shef.ac.uk/ccrepo) Feb. 2017
              D. E. Woon, T. H. Dunning, Jr., J. Chem. Phys. 98, 1358 (1993)
      Sc-Zn : Obtained from the ccRepo (grant-hill.group.shef.ac.uk/ccrepo) Feb. 2017
              N. B. Balabanov, K. A. Peterson, J. Chem. Phys. 123, 064107 (2005)
              N. B. Balabanov, K. A. Peterson, J. Chem. Phys. 125, 074110 (2006)
      Ga-Kr : Obtained from the ccRepo (grant-hill.group.shef.ac.uk/ccrepo) Feb. 2017
              A. K. Wilson, D. E. Woon, K. A. Peterson, T. H. Dunning, Jr., J. Chem. Phys. 110, 7667 (1999)
     Ag, Au : Obtained from the Peterson Research Group Website (tyr0.chem.wsu.edu/~kipeters) Feb. 2017
              K. A. Peterson, C. Puzzarini, Theor. Chem. Acc. 114, 283 (2005)

================================================================================
                                        WARNINGS
                       Please study these warnings very carefully!
================================================================================


WARNING: The frozen-core approximation for MP2-gradient calculations is turned on by default.

INFO   : the flag for use of LIBINT has been found!

----- Orbital basis set information -----
Your calculation utilizes the basis: aug-cc-pVTZ 
    H, B-Ne : Obtained from the ccRepo (grant-hill.group.shef.ac.uk/ccrepo) Feb. 2017
              R. A. Kendall, T. H. Dunning, Jr., R. J. Harrison, J. Chem. Phys. 96, 6796 (1992)
         He : Obtained from the ccRepo (grant-hill.group.shef.ac.uk/ccrepo) Feb. 2017
              D. E. Woon, T. H. Dunning, Jr., J. Chem. Phys. 100, 2975 (1994)
  Li-Be, Na : Obtained from the ccRepo (grant-hill.group.shef.ac.uk/ccrepo) Feb. 2017
              B. P. Prascher, D. E. Woon, K. A. Peterson, T. H. Dunning, Jr., A. K. Wilson, Theor. Chem. Acc. 128, 69 (2011)
         Mg : Obtained from the Peterson Research Group Website (tyr0.chem.wsu.edu/~kipeters) Feb. 2017
              B. P. Prascher, D. E. Woon, K. A. Peterson, T. H. Dunning, Jr., A. K. Wilson, Theor. Chem. Acc. 128, 69 (2011)
      Al-Ar : Obtained from the ccRepo (grant-hill.group.shef.ac.uk/ccrepo) Feb. 2017
              D. E. Woon, T. H. Dunning, Jr., J. Chem. Phys. 98, 1358 (1993)
      Sc-Zn : Obtained from the ccRepo (grant-hill.group.shef.ac.uk/ccrepo) Feb. 2017
              N. B. Balabanov, K. A. Peterson, J. Chem. Phys. 123, 064107 (2005)
              N. B. Balabanov, K. A. Peterson, J. Chem. Phys. 125, 074110 (2006)
      Ga-Kr : Obtained from the ccRepo (grant-hill.group.shef.ac.uk/ccrepo) Feb. 2017
              A. K. Wilson, D. E. Woon, K. A. Peterson, T. H. Dunning, Jr., J. Chem. Phys. 110, 7667 (1999)
     Ag, Au : Obtained from the Peterson Research Group Website (tyr0.chem.wsu.edu/~kipeters) Feb. 2017
              K. A. Peterson, C. Puzzarini, Theor. Chem. Acc. 114, 283 (2005)

================================================================================
                                        WARNINGS
                       Please study these warnings very carefully!
================================================================================


WARNING: The frozen-core approximation for MP2-gradient calculations is turned on by default.

INFO   : the flag for use of LIBINT has been found!

----- Orbital basis set information -----
Your calculation utilizes the basis: aug-cc-pVTZ 
    H, B-Ne : Obtained from the ccRepo (grant-hill.group.shef.ac.uk/ccrepo) Feb. 2017
              R. A. Kendall, T. H. Dunning, Jr., R. J. Harrison, J. Chem. Phys. 96, 6796 (1992)
         He : Obtained from the ccRepo (grant-hill.group.shef.ac.uk/ccrepo) Feb. 2017
              D. E. Woon, T. H. Dunning, Jr., J. Chem. Phys. 100, 2975 (1994)
  Li-Be, Na : Obtained from the ccRepo (grant-hill.group.shef.ac.uk/ccrepo) Feb. 2017
              B. P. Prascher, D. E. Woon, K. A. Peterson, T. H. Dunning, Jr., A. K. Wilson, Theor. Chem. Acc. 128, 69 (2011)
         Mg : Obtained from the Peterson Research Group Website (tyr0.chem.wsu.edu/~kipeters) Feb. 2017
              B. P. Prascher, D. E. Woon, K. A. Peterson, T. H. Dunning, Jr., A. K. Wilson, Theor. Chem. Acc. 128, 69 (2011)
      Al-Ar : Obtained from the ccRepo (grant-hill.group.shef.ac.uk/ccrepo) Feb. 2017
              D. E. Woon, T. H. Dunning, Jr., J. Chem. Phys. 98, 1358 (1993)
      Sc-Zn : Obtained from the ccRepo (grant-hill.group.shef.ac.uk/ccrepo) Feb. 2017
              N. B. Balabanov, K. A. Peterson, J. Chem. Phys. 123, 064107 (2005)
              N. B. Balabanov, K. A. Peterson, J. Chem. Phys. 125, 074110 (2006)
      Ga-Kr : Obtained from the ccRepo (grant-hill.group.shef.ac.uk/ccrepo) Feb. 2017
              A. K. Wilson, D. E. Woon, K. A. Peterson, T. H. Dunning, Jr., J. Chem. Phys. 110, 7667 (1999)
     Ag, Au : Obtained from the Peterson Research Group Website (tyr0.chem.wsu.edu/~kipeters) Feb. 2017
              K. A. Peterson, C. Puzzarini, Theor. Chem. Acc. 114, 283 (2005)

================================================================================
                                        WARNINGS
                       Please study these warnings very carefully!
================================================================================


WARNING: The frozen-core approximation for MP2-gradient calculations is turned on by default.

INFO   : the flag for use of LIBINT has been found!

----- Orbital basis set information -----
Your calculation utilizes the basis: aug-cc-pVTZ 
    H, B-Ne : Obtained from the ccRepo (grant-hill.group.shef.ac.uk/ccrepo) Feb. 2017
              R. A. Kendall, T. H. Dunning, Jr., R. J. Harrison, J. Chem. Phys. 96, 6796 (1992)
         He : Obtained from the ccRepo (grant-hill.group.shef.ac.uk/ccrepo) Feb. 2017
              D. E. Woon, T. H. Dunning, Jr., J. Chem. Phys. 100, 2975 (1994)
  Li-Be, Na : Obtained from the ccRepo (grant-hill.group.shef.ac.uk/ccrepo) Feb. 2017
              B. P. Prascher, D. E. Woon, K. A. Peterson, T. H. Dunning, Jr., A. K. Wilson, Theor. Chem. Acc. 128, 69 (2011)
         Mg : Obtained from the Peterson Research Group Website (tyr0.chem.wsu.edu/~kipeters) Feb. 2017
              B. P. Prascher, D. E. Woon, K. A. Peterson, T. H. Dunning, Jr., A. K. Wilson, Theor. Chem. Acc. 128, 69 (2011)
      Al-Ar : Obtained from the ccRepo (grant-hill.group.shef.ac.uk/ccrepo) Feb. 2017
              D. E. Woon, T. H. Dunning, Jr., J. Chem. Phys. 98, 1358 (1993)
      Sc-Zn : Obtained from the ccRepo (grant-hill.group.shef.ac.uk/ccrepo) Feb. 2017
              N. B. Balabanov, K. A. Peterson, J. Chem. Phys. 123, 064107 (2005)
              N. B. Balabanov, K. A. Peterson, J. Chem. Phys. 125, 074110 (2006)
      Ga-Kr : Obtained from the ccRepo (grant-hill.group.shef.ac.uk/ccrepo) Feb. 2017
              A. K. Wilson, D. E. Woon, K. A. Peterson, T. H. Dunning, Jr., J. Chem. Phys. 110, 7667 (1999)
     Ag, Au : Obtained from the Peterson Research Group Website (tyr0.chem.wsu.edu/~kipeters) Feb. 2017
              K. A. Peterson, C. Puzzarini, Theor. Chem. Acc. 114, 283 (2005)

================================================================================
                                        WARNINGS
                       Please study these warnings very carefully!
================================================================================


WARNING: The frozen-core approximation for MP2-gradient calculations is turned on by default.

INFO   : the flag for use of LIBINT has been found!

----- Orbital basis set information -----
Your calculation utilizes the basis: aug-cc-pVTZ 
    H, B-Ne : Obtained from the ccRepo (grant-hill.group.shef.ac.uk/ccrepo) Feb. 2017
              R. A. Kendall, T. H. Dunning, Jr., R. J. Harrison, J. Chem. Phys. 96, 6796 (1992)
         He : Obtained from the ccRepo (grant-hill.group.shef.ac.uk/ccrepo) Feb. 2017
              D. E. Woon, T. H. Dunning, Jr., J. Chem. Phys. 100, 2975 (1994)
  Li-Be, Na : Obtained from the ccRepo (grant-hill.group.shef.ac.uk/ccrepo) Feb. 2017
              B. P. Prascher, D. E. Woon, K. A. Peterson, T. H. Dunning, Jr., A. K. Wilson, Theor. Chem. Acc. 128, 69 (2011)
         Mg : Obtained from the Peterson Research Group Website (tyr0.chem.wsu.edu/~kipeters) Feb. 2017
              B. P. Prascher, D. E. Woon, K. A. Peterson, T. H. Dunning, Jr., A. K. Wilson, Theor. Chem. Acc. 128, 69 (2011)
      Al-Ar : Obtained from the ccRepo (grant-hill.group.shef.ac.uk/ccrepo) Feb. 2017
              D. E. Woon, T. H. Dunning, Jr., J. Chem. Phys. 98, 1358 (1993)
      Sc-Zn : Obtained from the ccRepo (grant-hill.group.shef.ac.uk/ccrepo) Feb. 2017
              N. B. Balabanov, K. A. Peterson, J. Chem. Phys. 123, 064107 (2005)
              N. B. Balabanov, K. A. Peterson, J. Chem. Phys. 125, 074110 (2006)
      Ga-Kr : Obtained from the ccRepo (grant-hill.group.shef.ac.uk/ccrepo) Feb. 2017
              A. K. Wilson, D. E. Woon, K. A. Peterson, T. H. Dunning, Jr., J. Chem. Phys. 110, 7667 (1999)
     Ag, Au : Obtained from the Peterson Research Group Website (tyr0.chem.wsu.edu/~kipeters) Feb. 2017
              K. A. Peterson, C. Puzzarini, Theor. Chem. Acc. 114, 283 (2005)

================================================================================
                                        WARNINGS
                       Please study these warnings very carefully!
================================================================================


WARNING: The frozen-core approximation for MP2-gradient calculations is turned on by default.

INFO   : the flag for use of LIBINT has been found!

----- Orbital basis set information -----
Your calculation utilizes the basis: aug-cc-pVTZ 
    H, B-Ne : Obtained from the ccRepo (grant-hill.group.shef.ac.uk/ccrepo) Feb. 2017
              R. A. Kendall, T. H. Dunning, Jr., R. J. Harrison, J. Chem. Phys. 96, 6796 (1992)
         He : Obtained from the ccRepo (grant-hill.group.shef.ac.uk/ccrepo) Feb. 2017
              D. E. Woon, T. H. Dunning, Jr., J. Chem. Phys. 100, 2975 (1994)
  Li-Be, Na : Obtained from the ccRepo (grant-hill.group.shef.ac.uk/ccrepo) Feb. 2017
              B. P. Prascher, D. E. Woon, K. A. Peterson, T. H. Dunning, Jr., A. K. Wilson, Theor. Chem. Acc. 128, 69 (2011)
         Mg : Obtained from the Peterson Research Group Website (tyr0.chem.wsu.edu/~kipeters) Feb. 2017
              B. P. Prascher, D. E. Woon, K. A. Peterson, T. H. Dunning, Jr., A. K. Wilson, Theor. Chem. Acc. 128, 69 (2011)
      Al-Ar : Obtained from the ccRepo (grant-hill.group.shef.ac.uk/ccrepo) Feb. 2017
              D. E. Woon, T. H. Dunning, Jr., J. Chem. Phys. 98, 1358 (1993)
      Sc-Zn : Obtained from the ccRepo (grant-hill.group.shef.ac.uk/ccrepo) Feb. 2017
              N. B. Balabanov, K. A. Peterson, J. Chem. Phys. 123, 064107 (2005)
              N. B. Balabanov, K. A. Peterson, J. Chem. Phys. 125, 074110 (2006)
      Ga-Kr : Obtained from the ccRepo (grant-hill.group.shef.ac.uk/ccrepo) Feb. 2017
              A. K. Wilson, D. E. Woon, K. A. Peterson, T. H. Dunning, Jr., J. Chem. Phys. 110, 7667 (1999)
     Ag, Au : Obtained from the Peterson Research Group Website (tyr0.chem.wsu.edu/~kipeters) Feb. 2017
              K. A. Peterson, C. Puzzarini, Theor. Chem. Acc. 114, 283 (2005)

================================================================================
                                        WARNINGS
                       Please study these warnings very carefully!
================================================================================


WARNING: The frozen-core approximation for MP2-gradient calculations is turned on by default.

INFO   : the flag for use of LIBINT has been found!

----- Orbital basis set information -----
Your calculation utilizes the basis: aug-cc-pVTZ 
    H, B-Ne : Obtained from the ccRepo (grant-hill.group.shef.ac.uk/ccrepo) Feb. 2017
              R. A. Kendall, T. H. Dunning, Jr., R. J. Harrison, J. Chem. Phys. 96, 6796 (1992)
         He : Obtained from the ccRepo (grant-hill.group.shef.ac.uk/ccrepo) Feb. 2017
              D. E. Woon, T. H. Dunning, Jr., J. Chem. Phys. 100, 2975 (1994)
  Li-Be, Na : Obtained from the ccRepo (grant-hill.group.shef.ac.uk/ccrepo) Feb. 2017
              B. P. Prascher, D. E. Woon, K. A. Peterson, T. H. Dunning, Jr., A. K. Wilson, Theor. Chem. Acc. 128, 69 (2011)
         Mg : Obtained from the Peterson Research Group Website (tyr0.chem.wsu.edu/~kipeters) Feb. 2017
              B. P. Prascher, D. E. Woon, K. A. Peterson, T. H. Dunning, Jr., A. K. Wilson, Theor. Chem. Acc. 128, 69 (2011)
      Al-Ar : Obtained from the ccRepo (grant-hill.group.shef.ac.uk/ccrepo) Feb. 2017
              D. E. Woon, T. H. Dunning, Jr., J. Chem. Phys. 98, 1358 (1993)
      Sc-Zn : Obtained from the ccRepo (grant-hill.group.shef.ac.uk/ccrepo) Feb. 2017
              N. B. Balabanov, K. A. Peterson, J. Chem. Phys. 123, 064107 (2005)
              N. B. Balabanov, K. A. Peterson, J. Chem. Phys. 125, 074110 (2006)
      Ga-Kr : Obtained from the ccRepo (grant-hill.group.shef.ac.uk/ccrepo) Feb. 2017
              A. K. Wilson, D. E. Woon, K. A. Peterson, T. H. Dunning, Jr., J. Chem. Phys. 110, 7667 (1999)
     Ag, Au : Obtained from the Peterson Research Group Website (tyr0.chem.wsu.edu/~kipeters) Feb. 2017
              K. A. Peterson, C. Puzzarini, Theor. Chem. Acc. 114, 283 (2005)

================================================================================
                                        WARNINGS
                       Please study these warnings very carefully!
================================================================================


WARNING: The frozen-core approximation for MP2-gradient calculations is turned on by default.

INFO   : the flag for use of LIBINT has been found!

================================================================================
                                       INPUT FILE
================================================================================
NAME = 6h2o.temelso.etal.dset.3h2o-orca.engrad-mp2.augccpvtz-150.to.159.inp
|  1> # 6h2o.temelso.etal.dset.3h2o-orca.engrad-mp2.augccpvtz-150.to.159
|  2> ! MP2 aug-cc-pVTZ EnGrad TightSCF FrozenCore
|  3> 
|  4> %pal
|  5>     nprocs 12
|  6> end
|  7> 
|  8> %maxcore 8000
|  9> 
| 10> %scf
| 11>     ConvForced true
| 12> end
| 13> 
| 14> *xyz 0 1
| 15> O  -1.399913894  -0.917144653   0.781210639
| 16> H  -0.684813894  -1.301144653   0.221910639
| 17> H  -2.168613894  -1.479344653   0.631610639
| 18> O   0.631986106  -1.975244653  -0.702889361
| 19> H   1.528786106  -1.672144653  -0.423789361
| 20> H   0.644586106  -1.915044653  -1.665489361
| 21> O   0.779486106   2.934555347   0.028310639
| 22> H   0.527886106   3.172855347  -0.871889361
| 23> H  -0.031313894   2.525455347   0.414910639
| 24> *
| 25> 
| 26> 
| 27> $new_job
| 28> 
| 29> # 6h2o.temelso.etal.dset.3h2o-orca.engrad-mp2.augccpvtz-150.to.159
| 30> ! MP2 aug-cc-pVTZ EnGrad TightSCF FrozenCore
| 31> 
| 32> %pal
| 33>     nprocs 12
| 34> end
| 35> 
| 36> %maxcore 8000
| 37> 
| 38> %scf
| 39>     ConvForced true
| 40> end
| 41> 
| 42> *xyz 0 1
| 43> O  -2.202699618   0.417205607   0.746784564
| 44> H  -1.487599618   0.033205607   0.187484564
| 45> H  -2.971399618  -0.144994393   0.597184564
| 46> O  -0.170799618  -0.640894393  -0.737315436
| 47> H   0.726000382  -0.337794393  -0.458215436
| 48> H  -0.158199618  -0.580694393  -1.699915436
| 49> O   2.304300382   0.225305607   0.013384564
| 50> H   2.661600382  -0.187594393   0.808984564
| 51> H   2.328100382   1.192205607   0.201684564
| 52> *
| 53> 
| 54> 
| 55> $new_job
| 56> 
| 57> # 6h2o.temelso.etal.dset.3h2o-orca.engrad-mp2.augccpvtz-150.to.159
| 58> ! MP2 aug-cc-pVTZ EnGrad TightSCF FrozenCore
| 59> 
| 60> %pal
| 61>     nprocs 12
| 62> end
| 63> 
| 64> %maxcore 8000
| 65> 
| 66> %scf
| 67>     ConvForced true
| 68> end
| 69> 
| 70> *xyz 0 1
| 71> O  -2.182532975  -0.484115388   0.593303824
| 72> H  -1.467432975  -0.868115388   0.034003824
| 73> H  -2.951232975  -1.046315388   0.443703824
| 74> O  -0.150632975  -1.542215388  -0.890796176
| 75> H   0.746167025  -1.239115388  -0.611696176
| 76> H  -0.138032975  -1.482015388  -1.853396176
| 77> O   2.290267025   1.996584612   0.397203824
| 78> H   1.473567025   2.500684612   0.172203824
| 79> H   3.017967025   2.607084612   0.232303824
| 80> *
| 81> 
| 82> 
| 83> $new_job
| 84> 
| 85> # 6h2o.temelso.etal.dset.3h2o-orca.engrad-mp2.augccpvtz-150.to.159
| 86> ! MP2 aug-cc-pVTZ EnGrad TightSCF FrozenCore
| 87> 
| 88> %pal
| 89>     nprocs 12
| 90> end
| 91> 
| 92> %maxcore 8000
| 93> 
| 94> %scf
| 95>     ConvForced true
| 96> end
| 97> 
| 98> *xyz 0 1
| 99> O  -2.215095244  -1.209434248   0.499882857
|100> H  -1.499995244  -1.593434248  -0.059417143
|101> H  -2.983795244  -1.771634248   0.350282857
|102> O  -0.035695244   2.642265752  -0.253017143
|103> H  -0.287295244   2.880565752  -1.153217143
|104> H  -0.846495244   2.233165752   0.133582857
|105> O   2.291904756  -1.401334248  -0.233517143
|106> H   2.649204756  -1.814234248   0.562082857
|107> H   2.315704756  -0.434434248  -0.045217143
|108> *
|109> 
|110> 
|111> $new_job
|112> 
|113> # 6h2o.temelso.etal.dset.3h2o-orca.engrad-mp2.augccpvtz-150.to.159
|114> ! MP2 aug-cc-pVTZ EnGrad TightSCF FrozenCore
|115> 
|116> %pal
|117>     nprocs 12
|118> end
|119> 
|120> %maxcore 8000
|121> 
|122> %scf
|123>     ConvForced true
|124> end
|125> 
|126> *xyz 0 1
|127> O  -2.194928601  -2.110755244   0.346402116
|128> H  -1.479828601  -2.494755244  -0.212897884
|129> H  -2.963628601  -2.672955244   0.196802116
|130> O  -0.015528601   1.740944756  -0.406497884
|131> H  -0.267128601   1.979244756  -1.306697884
|132> H  -0.826328601   1.331844756  -0.019897884
|133> O   2.277871399   0.369944756   0.150302116
|134> H   1.461171399   0.874044756  -0.074697884
|135> H   3.005571399   0.980444756  -0.014597884
|136> *
|137> 
|138> 
|139> $new_job
|140> 
|141> # 6h2o.temelso.etal.dset.3h2o-orca.engrad-mp2.augccpvtz-150.to.159
|142> ! MP2 aug-cc-pVTZ EnGrad TightSCF FrozenCore
|143> 
|144> %pal
|145>     nprocs 12
|146> end
|147> 
|148> %maxcore 8000
|149> 
|150> %scf
|151>     ConvForced true
|152> end
|153> 
|154> *xyz 0 1
|155> O  -2.997714325  -0.776404984   0.311976042
|156> H  -2.282614325  -1.160404984  -0.247323958
|157> H  -3.766414325  -1.338604984   0.162376042
|158> O   1.509285675  -0.968304984  -0.421423958
|159> H   1.866585675  -1.381204984   0.374176042
|160> H   1.533085675  -0.001404984  -0.233123958
|161> O   1.475085675   1.704295016   0.115876042
|162> H   0.658385675   2.208395016  -0.109123958
|163> H   2.202785675   2.314795016  -0.049023958
|164> *
|165> 
|166> 
|167> $new_job
|168> 
|169> # 6h2o.temelso.etal.dset.3h2o-orca.engrad-mp2.augccpvtz-150.to.159
|170> ! MP2 aug-cc-pVTZ EnGrad TightSCF FrozenCore
|171> 
|172> %pal
|173>     nprocs 12
|174> end
|175> 
|176> %maxcore 8000
|177> 
|178> %scf
|179>     ConvForced true
|180> end
|181> 
|182> *xyz 0 1
|183> O  -0.878453715  -1.939254412  -0.489990814
|184> H   0.018346285  -1.636154412  -0.210890814
|185> H  -0.865853715  -1.879054412  -1.452590814
|186> O  -0.730953715   2.970545588   0.241209186
|187> H  -0.982553715   3.208845588  -0.658990814
|188> H  -1.541753715   2.561445588   0.627809186
|189> O   1.596646285  -1.073054412   0.260709186
|190> H   1.953946285  -1.485954412   1.056309186
|191> H   1.620446285  -0.106154412   0.449009186
|192> *
|193> 
|194> 
|195> $new_job
|196> 
|197> # 6h2o.temelso.etal.dset.3h2o-orca.engrad-mp2.augccpvtz-150.to.159
|198> ! MP2 aug-cc-pVTZ EnGrad TightSCF FrozenCore
|199> 
|200> %pal
|201>     nprocs 12
|202> end
|203> 
|204> %maxcore 8000
|205> 
|206> %scf
|207>     ConvForced true
|208> end
|209> 
|210> *xyz 0 1
|211> O  -0.858287072  -2.840575407  -0.643471555
|212> H   0.038512928  -2.537475407  -0.364371555
|213> H  -0.845687072  -2.780375407  -1.606071555
|214> O  -0.710787072   2.069224593   0.087728445
|215> H  -0.962387072   2.307524593  -0.812471555
|216> H  -1.521587072   1.660124593   0.474328445
|217> O   1.582612928   0.698224593   0.644528445
|218> H   0.765912928   1.202324593   0.419528445
|219> H   2.310312928   1.308724593   0.479628445
|220> *
|221> 
|222> 
|223> $new_job
|224> 
|225> # 6h2o.temelso.etal.dset.3h2o-orca.engrad-mp2.augccpvtz-150.to.159
|226> ! MP2 aug-cc-pVTZ EnGrad TightSCF FrozenCore
|227> 
|228> %pal
|229>     nprocs 12
|230> end
|231> 
|232> %maxcore 8000
|233> 
|234> %scf
|235>     ConvForced true
|236> end
|237> 
|238> *xyz 0 1
|239> O  -1.661072796  -1.506225147  -0.677897629
|240> H  -0.764272796  -1.203125147  -0.398797629
|241> H  -1.648472796  -1.446025147  -1.640497629
|242> O   0.814027204  -0.640025147   0.072802371
|243> H   1.171327204  -1.052925147   0.868402371
|244> H   0.837827204   0.326874853   0.261102371
|245> O   0.779827204   2.032574853   0.610102371
|246> H  -0.036872796   2.536674853   0.385102371
|247> H   1.507527204   2.643074853   0.445202371
|248> *
|249> 
|250> 
|251> $new_job
|252> 
|253> # 6h2o.temelso.etal.dset.3h2o-orca.engrad-mp2.augccpvtz-150.to.159
|254> ! MP2 aug-cc-pVTZ EnGrad TightSCF FrozenCore
|255> 
|256> %pal
|257>     nprocs 12
|258> end
|259> 
|260> %maxcore 8000
|261> 
|262> %scf
|263>     ConvForced true
|264> end
|265> 
|266> *xyz 0 1
|267> O  -1.525968422   1.776934998  -0.193599336
|268> H  -1.777568422   2.015234998  -1.093799336
|269> H  -2.336768422   1.367834998   0.193000664
|270> O   0.801631578  -2.266665002  -0.174099336
|271> H   1.158931578  -2.679565002   0.621500664
|272> H   0.825431578  -1.299765002   0.014200664
|273> O   0.767431578   0.405934998   0.363200664
|274> H  -0.049268422   0.910034998   0.138200664
|275> H   1.495131578   1.016434998   0.198300664
|276> *
|277> 
|278>                          ****END OF INPUT****
================================================================================


                 $$$$$$$$$$$$$$$$$$$$$$$$$$$$$$$$$$$$$$$$$$$$$$ 
                 $ THERE ARE 10 JOBS TO BE PROCESSED THIS RUN $
                 $$$$$$$$$$$$$$$$$$$$$$$$$$$$$$$$$$$$$$$$$$$$$$ 




                 $$$$$$$$$$$$$$$$  JOB NUMBER  1 $$$$$$$$$$$$$$


                     *******************************
                     * Energy+Gradient Calculation *
                     *******************************

---------------------------------
CARTESIAN COORDINATES (ANGSTROEM)
---------------------------------
  O     -1.399914   -0.917145    0.781211
  H     -0.684814   -1.301145    0.221911
  H     -2.168614   -1.479345    0.631611
  O      0.631986   -1.975245   -0.702889
  H      1.528786   -1.672145   -0.423789
  H      0.644586   -1.915045   -1.665489
  O      0.779486    2.934555    0.028311
  H      0.527886    3.172855   -0.871889
  H     -0.031314    2.525455    0.414911

----------------------------
CARTESIAN COORDINATES (A.U.)
----------------------------
  NO LB      ZA    FRAG     MASS         X           Y           Z
   0 O     8.0000    0    15.999   -2.645454   -1.733152    1.476274
   1 H     1.0000    0     1.008   -1.294111   -2.458807    0.419350
   2 H     1.0000    0     1.008   -4.098086   -2.795556    1.193571
   3 O     8.0000    0    15.999    1.194281   -3.732671   -1.328268
   4 H     1.0000    0     1.008    2.888987   -3.159895   -0.800846
   5 H     1.0000    0     1.008    1.218091   -3.618910   -3.147319
   6 O     8.0000    0    15.999    1.473015    5.545506    0.053499
   7 H     1.0000    0     1.008    0.997560    5.995828   -1.647632
   8 H     1.0000    0     1.008   -0.059175    4.772419    0.784067

--------------------------------
INTERNAL COORDINATES (ANGSTROEM)
--------------------------------
 O      0   0   0     0.000000000000     0.00000000     0.00000000
 H      1   0   0     0.985718266038     0.00000000     0.00000000
 H      1   2   0     0.964027328451   105.26208823     0.00000000
 O      2   1   3     1.744599693339   177.27465620   226.93747523
 H      4   2   1     0.986922823730   114.66328510   330.74924197
 H      4   2   1     0.964562885456   120.98131541   204.01612692
 O      2   1   3     4.485845510046    83.88395731   150.18779211
 H      7   2   1     0.964598097655   100.85961595   254.30677105
 H      7   2   1     0.987025334021    47.43585589   354.35660460

---------------------------
INTERNAL COORDINATES (A.U.)
---------------------------
 O      0   0   0     0.000000000000     0.00000000     0.00000000
 H      1   0   0     1.862737568015     0.00000000     0.00000000
 H      1   2   0     1.821747636388   105.26208823     0.00000000
 O      2   1   3     3.296815633735   177.27465620   226.93747523
 H      4   2   1     1.865013852167   114.66328510   330.74924197
 H      4   2   1     1.822759692457   120.98131541   204.01612692
 O      2   1   3     8.477019493067    83.88395731   150.18779211
 H      7   2   1     1.822826233870   100.85961595   254.30677105
 H      7   2   1     1.865207568543    47.43585589   354.35660460

---------------------
BASIS SET INFORMATION
---------------------
There are 2 groups of distinct atoms

 Group   1 Type O   : 19s6p3d2f contracted to 5s4p3d2f pattern {88111/3111/111/11}
 Group   2 Type H   : 6s3p2d contracted to 4s3p2d pattern {3111/111/11}

Atom   0O    basis set group =>   1
Atom   1H    basis set group =>   2
Atom   2H    basis set group =>   2
Atom   3O    basis set group =>   1
Atom   4H    basis set group =>   2
Atom   5H    basis set group =>   2
Atom   6O    basis set group =>   1
Atom   7H    basis set group =>   2
Atom   8H    basis set group =>   2


           ************************************************************
           *        Program running with 12 parallel MPI-processes    *
           *              working on a common directory               *
           ************************************************************
------------------------------------------------------------------------------
                           ORCA GTO INTEGRAL CALCULATION
------------------------------------------------------------------------------

                         BASIS SET STATISTICS AND STARTUP INFO

 # of primitive gaussian shells          ...  156
 # of primitive gaussian functions       ...  348
 # of contracted shells                  ...   96
 # of contracted basis functions         ...  276
 Highest angular momentum                ...    3
 Maximum contraction depth               ...    8
 Integral package used                   ... LIBINT
 Integral threshhold            Thresh   ...  2.500e-11
 Primitive cut-off              TCut     ...  2.500e-12


------------------------------ INTEGRAL EVALUATION ----------------------------


 * One electron integrals 
 Pre-screening matrix                    ... done
 Shell pair data                         ... done (   0.001 sec)



           ************************************************************
           *        Program running with 12 parallel MPI-processes    *
           *              working on a common directory               *
           ************************************************************
-------------------------------------------------------------------------------
                                 ORCA SCF
-------------------------------------------------------------------------------

------------
SCF SETTINGS
------------
Hamiltonian:
 Ab initio Hamiltonian  Method          .... Hartree-Fock(GTOs)


General Settings:
 Integral files         IntName         .... 6h2o.temelso.etal.dset.3h2o-orca.engrad-mp2.augccpvtz-150.to.159
 Hartree-Fock type      HFTyp           .... RHF
 Total Charge           Charge          ....    0
 Multiplicity           Mult            ....    1
 Number of Electrons    NEL             ....   30
 Basis Dimension        Dim             ....  276
 Nuclear Repulsion      ENuc            ....     69.0079304903 Eh

Convergence Acceleration:
 DIIS                   CNVDIIS         .... on
   Start iteration      DIISMaxIt       ....    12
   Startup error        DIISStart       ....  0.200000
   # of expansion vecs  DIISMaxEq       ....     5
   Bias factor          DIISBfac        ....   1.050
   Max. coefficient     DIISMaxC        ....  10.000
 Newton-Raphson         CNVNR           .... off
 SOSCF                  CNVSOSCF        .... on
   Start iteration      SOSCFMaxIt      ....   150
   Startup grad/error   SOSCFStart      ....  0.003300
 Level Shifting         CNVShift        .... on
   Level shift para.    LevelShift      ....    0.2500
   Turn off err/grad.   ShiftErr        ....    0.0010
 Zerner damping         CNVZerner       .... off
 Static damping         CNVDamp         .... on
   Fraction old density DampFac         ....    0.7000
   Max. Damping (<1)    DampMax         ....    0.9800
   Min. Damping (>=0)   DampMin         ....    0.0000
   Turn off err/grad.   DampErr         ....    0.1000
 Fernandez-Rico         CNVRico         .... off

SCF Procedure:
 Maximum # iterations   MaxIter         ....   125
 SCF integral mode      SCFMode         .... Direct
   Integral package                     .... LIBINT
 Reset frequency        DirectResetFreq ....    20
 Integral Threshold     Thresh          ....  2.500e-11 Eh
 Primitive CutOff       TCut            ....  2.500e-12 Eh

Convergence Tolerance:
 Convergence Check Mode ConvCheckMode   .... Total+1el-Energy
 Convergence forced     ConvForced      .... 1
 Energy Change          TolE            ....  1.000e-08 Eh
 1-El. energy change                    ....  1.000e-05 Eh
 Orbital Gradient       TolG            ....  1.000e-05
 Orbital Rotation angle TolX            ....  1.000e-05
 DIIS Error             TolErr          ....  5.000e-07


Diagonalization of the overlap matrix:
Smallest eigenvalue                        ... 2.144e-04
Time for diagonalization                   ...    0.008 sec
Threshold for overlap eigenvalues          ... 1.000e-08
Number of eigenvalues below threshold      ... 0
Time for construction of square roots      ...    0.005 sec
Total time needed                          ...    0.014 sec

-------------------
DFT GRID GENERATION
-------------------

General Integration Accuracy     IntAcc      ...  4.340
Radial Grid Type                 RadialGrid  ... Gauss-Chebyshev
Angular Grid (max. acc.)         AngularGrid ... Lebedev-110
Angular grid pruning method      GridPruning ... 3 (G Style)
Weight generation scheme         WeightScheme... Becke
Basis function cutoff            BFCut       ...    1.0000e-11
Integration weight cutoff        WCut        ...    1.0000e-14
Grids for H and He will be reduced by one unit

# of grid points (after initial pruning)     ...   9912 (   0.0 sec)
# of grid points (after weights+screening)   ...   9662 (   0.0 sec)
nearest neighbour list constructed           ...    0.0 sec
Grid point re-assignment to atoms done       ...    0.0 sec
Grid point division into batches done        ...    0.0 sec
Reduced shell lists constructed in    0.0 sec

Total number of grid points                  ...     9662
Total number of batches                      ...      155
Average number of points per batch           ...       62
Average number of grid points per atom       ...     1074
Average number of shells per batch           ...    67.43 (70.24%)
Average number of basis functions per batch  ...   187.57 (67.96%)
Average number of large shells per batch     ...    57.43 (85.17%)
Average number of large basis fcns per batch ...   158.29 (84.39%)
Maximum spatial batch extension              ...  11.00, 12.05, 13.20 au
Average spatial batch extension              ...   0.30,  0.32,  0.33 au

Time for grid setup =    0.028 sec

------------------------------
INITIAL GUESS: MODEL POTENTIAL
------------------------------
Loading Hartree-Fock densities                     ... done
Calculating cut-offs                               ... done
Setting up the integral package                    ... done
Initializing the effective Hamiltonian             ... done
Starting the Coulomb interaction                   ... done (   0.0 sec)
Reading the grid                                   ... done
Mapping shells                                     ... done
Starting the XC term evaluation                    ... done (   0.0 sec)
Transforming the Hamiltonian                       ... done (   0.0 sec)
Diagonalizing the Hamiltonian                      ... done (   0.0 sec)
Back transforming the eigenvectors                 ... done (   0.0 sec)
Now organizing SCF variables                       ... done
                      ------------------
                      INITIAL GUESS DONE (   0.1 sec)
                      ------------------
--------------
SCF ITERATIONS
--------------
ITER       Energy         Delta-E        Max-DP      RMS-DP      [F,P]     Damp
               ***  Starting incremental Fock matrix formation  ***
  0   -227.8960612615   0.000000000000 0.02737984  0.00057857  0.3806863 0.7000
  1   -228.0093861442  -0.113324882711 0.01822768  0.00039340  0.2212957 0.7000
                               ***Turning on DIIS***
  2   -228.0685770827  -0.059190938521 0.01181104  0.00022118  0.1174767 0.7000
  3   -228.5259762570  -0.457399174244 0.03045187  0.00043040  0.0849536 0.0000
  4   -228.1097218662   0.416254390807 0.00483947  0.00007866  0.0125003 0.0000
                      *** Initiating the SOSCF procedure ***
                           *** Shutting down DIIS ***
                      *** Re-Reading the Fockian *** 
                      *** Removing any level shift *** 
ITER      Energy       Delta-E        Grad      Rot      Max-DP    RMS-DP
  5   -228.17973452  -0.0700126538  0.001167  0.001167  0.002338  0.000035
               *** Restarting incremental Fock matrix formation ***
  6   -228.18208690  -0.0023523772  0.000427  0.000571  0.001123  0.000017
  7   -228.18210364  -0.0000167399  0.000181  0.000434  0.001037  0.000014
  8   -228.18210747  -0.0000038364  0.000078  0.000046  0.000223  0.000003
  9   -228.18210770  -0.0000002237  0.000026  0.000016  0.000020  0.000000
 10   -228.18210772  -0.0000000244  0.000004  0.000006  0.000006  0.000000
                  ***Gradient check signals convergence***
              ***Rediagonalizing the Fockian in SOSCF/NRSCF***

               *****************************************************
               *                     SUCCESS                       *
               *           SCF CONVERGED AFTER  11 CYCLES          *
               *****************************************************


----------------
TOTAL SCF ENERGY
----------------

Total Energy       :         -228.18210772 Eh           -6209.15082 eV

Components:
Nuclear Repulsion  :           69.00793049 Eh            1877.80125 eV
Electronic Energy  :         -297.19003821 Eh           -8086.95207 eV
One Electron Energy:         -452.15570689 Eh          -12303.78230 eV
Two Electron Energy:          154.96566868 Eh            4216.83022 eV

Virial components:
Potential Energy   :         -455.90484585 Eh          -12405.80155 eV
Kinetic Energy     :          227.72273813 Eh            6196.65074 eV
Virial Ratio       :            2.00201723


---------------
SCF CONVERGENCE
---------------

  Last Energy change         ...   -8.5629e-10  Tolerance :   1.0000e-08
  Last MAX-Density change    ...    2.5987e-06  Tolerance :   1.0000e-07
  Last RMS-Density change    ...    6.1794e-08  Tolerance :   5.0000e-09
  Last Orbital Gradient      ...    1.2425e-06  Tolerance :   1.0000e-05
  Last Orbital Rotation      ...    3.2252e-06  Tolerance :   1.0000e-05

             **** THE GBW FILE WAS UPDATED (6h2o.temelso.etal.dset.3h2o-orca.engrad-mp2.augccpvtz-150.to.159.gbw) ****
             **** DENSITY FILE WAS UPDATED (6h2o.temelso.etal.dset.3h2o-orca.engrad-mp2.augccpvtz-150.to.159.scfp) ****
             **** ENERGY FILE WAS UPDATED (6h2o.temelso.etal.dset.3h2o-orca.engrad-mp2.augccpvtz-150.to.159.en.tmp) ****
             **** THE GBW FILE WAS UPDATED (6h2o.temelso.etal.dset.3h2o-orca.engrad-mp2.augccpvtz-150.to.159.gbw) ****
             **** DENSITY FILE WAS UPDATED (6h2o.temelso.etal.dset.3h2o-orca.engrad-mp2.augccpvtz-150.to.159.scfp) ****
----------------
ORBITAL ENERGIES
----------------

  NO   OCC          E(Eh)            E(eV) 
   0   2.0000     -20.601582      -560.5976 
   1   2.0000     -20.562468      -559.5332 
   2   2.0000     -20.530624      -558.6667 
   3   2.0000      -1.381273       -37.5864 
   4   2.0000      -1.336531       -36.3689 
   5   2.0000      -1.310465       -35.6596 
   6   2.0000      -0.741456       -20.1760 
   7   2.0000      -0.700323       -19.0567 
   8   2.0000      -0.696040       -18.9402 
   9   2.0000      -0.616932       -16.7876 
  10   2.0000      -0.573793       -15.6137 
  11   2.0000      -0.555621       -15.1192 
  12   2.0000      -0.528812       -14.3897 
  13   2.0000      -0.501426       -13.6445 
  14   2.0000      -0.474844       -12.9212 
  15   0.0000       0.018798         0.5115 
  16   0.0000       0.040411         1.0996 
  17   0.0000       0.044211         1.2031 
  18   0.0000       0.046853         1.2749 
  19   0.0000       0.066760         1.8166 
  20   0.0000       0.082117         2.2345 
  21   0.0000       0.123688         3.3657 
  22   0.0000       0.139602         3.7988 
  23   0.0000       0.149228         4.0607 
  24   0.0000       0.159975         4.3531 
  25   0.0000       0.173939         4.7331 
  26   0.0000       0.175116         4.7651 
  27   0.0000       0.179081         4.8730 
  28   0.0000       0.191278         5.2049 
  29   0.0000       0.194372         5.2891 
  30   0.0000       0.204787         5.5725 
  31   0.0000       0.213256         5.8030 
  32   0.0000       0.223990         6.0951 
  33   0.0000       0.236423         6.4334 
  34   0.0000       0.242316         6.5938 
  35   0.0000       0.255205         6.9445 
  36   0.0000       0.263452         7.1689 
  37   0.0000       0.275608         7.4997 
  38   0.0000       0.281653         7.6642 
  39   0.0000       0.306290         8.3346 
  40   0.0000       0.314272         8.5518 
  41   0.0000       0.316814         8.6210 
  42   0.0000       0.359551         9.7839 
  43   0.0000       0.371659        10.1134 
  44   0.0000       0.387862        10.5543 
  45   0.0000       0.389961        10.6114 
  46   0.0000       0.396630        10.7929 
  47   0.0000       0.413500        11.2519 
  48   0.0000       0.415590        11.3088 
  49   0.0000       0.436985        11.8910 
  50   0.0000       0.447752        12.1840 
  51   0.0000       0.449805        12.2398 
  52   0.0000       0.454603        12.3704 
  53   0.0000       0.468831        12.7575 
  54   0.0000       0.501131        13.6365 
  55   0.0000       0.510384        13.8883 
  56   0.0000       0.580832        15.8052 
  57   0.0000       0.608475        16.5574 
  58   0.0000       0.615530        16.7494 
  59   0.0000       0.619237        16.8503 
  60   0.0000       0.670857        18.2550 
  61   0.0000       0.681528        18.5453 
  62   0.0000       0.698243        19.0002 
  63   0.0000       0.717560        19.5258 
  64   0.0000       0.723158        19.6781 
  65   0.0000       0.737730        20.0746 
  66   0.0000       0.750308        20.4169 
  67   0.0000       0.758564        20.6416 
  68   0.0000       0.765059        20.8183 
  69   0.0000       0.776766        21.1369 
  70   0.0000       0.785855        21.3842 
  71   0.0000       0.808520        22.0009 
  72   0.0000       0.832109        22.6428 
  73   0.0000       0.843408        22.9503 
  74   0.0000       0.845812        23.0157 
  75   0.0000       0.867410        23.6034 
  76   0.0000       0.884703        24.0740 
  77   0.0000       0.897451        24.4209 
  78   0.0000       0.912013        24.8171 
  79   0.0000       0.922335        25.0980 
  80   0.0000       0.927658        25.2428 
  81   0.0000       0.935092        25.4451 
  82   0.0000       0.941517        25.6200 
  83   0.0000       0.946367        25.7520 
  84   0.0000       0.963428        26.2162 
  85   0.0000       0.970940        26.4206 
  86   0.0000       0.977795        26.6072 
  87   0.0000       0.991165        26.9710 
  88   0.0000       0.999520        27.1983 
  89   0.0000       1.012618        27.5547 
  90   0.0000       1.015070        27.6215 
  91   0.0000       1.028611        27.9899 
  92   0.0000       1.030411        28.0389 
  93   0.0000       1.037179        28.2231 
  94   0.0000       1.045840        28.4588 
  95   0.0000       1.065659        28.9981 
  96   0.0000       1.070555        29.1313 
  97   0.0000       1.089700        29.6522 
  98   0.0000       1.106728        30.1156 
  99   0.0000       1.122683        30.5498 
 100   0.0000       1.131375        30.7863 
 101   0.0000       1.161097        31.5951 
 102   0.0000       1.169335        31.8192 
 103   0.0000       1.170685        31.8559 
 104   0.0000       1.204221        32.7685 
 105   0.0000       1.217318        33.1249 
 106   0.0000       1.225733        33.3539 
 107   0.0000       1.250961        34.0404 
 108   0.0000       1.279801        34.8252 
 109   0.0000       1.291961        35.1560 
 110   0.0000       1.315967        35.8093 
 111   0.0000       1.333414        36.2841 
 112   0.0000       1.349078        36.7103 
 113   0.0000       1.441898        39.2360 
 114   0.0000       1.482699        40.3463 
 115   0.0000       1.501747        40.8646 
 116   0.0000       1.537152        41.8280 
 117   0.0000       1.539414        41.8896 
 118   0.0000       1.558848        42.4184 
 119   0.0000       1.577753        42.9328 
 120   0.0000       1.605758        43.6949 
 121   0.0000       1.636711        44.5372 
 122   0.0000       1.656707        45.0813 
 123   0.0000       1.677125        45.6369 
 124   0.0000       1.703583        46.3569 
 125   0.0000       1.770245        48.1708 
 126   0.0000       1.816181        49.4208 
 127   0.0000       1.831484        49.8372 
 128   0.0000       1.845595        50.2212 
 129   0.0000       1.877111        51.0788 
 130   0.0000       1.925180        52.3868 
 131   0.0000       1.978829        53.8467 
 132   0.0000       1.996006        54.3141 
 133   0.0000       2.060718        56.0750 
 134   0.0000       2.089568        56.8600 
 135   0.0000       2.119716        57.6804 
 136   0.0000       2.133099        58.0446 
 137   0.0000       2.265498        61.6473 
 138   0.0000       2.284077        62.1529 
 139   0.0000       2.309733        62.8510 
 140   0.0000       2.336622        63.5827 
 141   0.0000       2.342175        63.7338 
 142   0.0000       2.361288        64.2539 
 143   0.0000       2.378007        64.7089 
 144   0.0000       2.414640        65.7057 
 145   0.0000       2.428089        66.0717 
 146   0.0000       2.438105        66.3442 
 147   0.0000       2.454090        66.7792 
 148   0.0000       2.466226        67.1094 
 149   0.0000       2.482303        67.5469 
 150   0.0000       2.489550        67.7441 
 151   0.0000       2.505175        68.1693 
 152   0.0000       2.508543        68.2609 
 153   0.0000       2.540491        69.1303 
 154   0.0000       2.541924        69.1693 
 155   0.0000       2.596406        70.6518 
 156   0.0000       2.660225        72.3884 
 157   0.0000       2.670989        72.6813 
 158   0.0000       2.701848        73.5210 
 159   0.0000       2.713573        73.8401 
 160   0.0000       2.742805        74.6355 
 161   0.0000       2.746357        74.7322 
 162   0.0000       2.762352        75.1674 
 163   0.0000       2.772449        75.4422 
 164   0.0000       2.820710        76.7554 
 165   0.0000       2.833427        77.1015 
 166   0.0000       2.846331        77.4526 
 167   0.0000       2.894641        78.7672 
 168   0.0000       2.897866        78.8549 
 169   0.0000       2.918297        79.4109 
 170   0.0000       2.964593        80.6707 
 171   0.0000       3.039137        82.6991 
 172   0.0000       3.093587        84.1808 
 173   0.0000       3.162622        86.0593 
 174   0.0000       3.650263        99.3287 
 175   0.0000       3.737459       101.7014 
 176   0.0000       3.754855       102.1748 
 177   0.0000       3.778089       102.8070 
 178   0.0000       3.834841       104.3513 
 179   0.0000       4.015686       109.2724 
 180   0.0000       4.043995       110.0427 
 181   0.0000       4.065453       110.6266 
 182   0.0000       4.112192       111.8984 
 183   0.0000       4.130254       112.3899 
 184   0.0000       4.159698       113.1911 
 185   0.0000       4.182268       113.8053 
 186   0.0000       4.207924       114.5034 
 187   0.0000       4.213056       114.6431 
 188   0.0000       4.236927       115.2926 
 189   0.0000       4.250790       115.6699 
 190   0.0000       4.283682       116.5649 
 191   0.0000       4.298826       116.9770 
 192   0.0000       4.325998       117.7164 
 193   0.0000       4.349731       118.3622 
 194   0.0000       4.380062       119.1876 
 195   0.0000       4.395338       119.6032 
 196   0.0000       4.403140       119.8155 
 197   0.0000       4.432664       120.6189 
 198   0.0000       4.452002       121.1451 
 199   0.0000       4.462198       121.4226 
 200   0.0000       4.494526       122.3023 
 201   0.0000       4.509886       122.7202 
 202   0.0000       4.522588       123.0659 
 203   0.0000       4.531033       123.2957 
 204   0.0000       4.599259       125.1522 
 205   0.0000       4.631844       126.0389 
 206   0.0000       4.694801       127.7520 
 207   0.0000       4.726322       128.6098 
 208   0.0000       4.772162       129.8571 
 209   0.0000       4.812350       130.9507 
 210   0.0000       4.837975       131.6480 
 211   0.0000       4.889651       133.0542 
 212   0.0000       5.022666       136.6737 
 213   0.0000       5.094411       138.6260 
 214   0.0000       5.115488       139.1995 
 215   0.0000       5.119733       139.3150 
 216   0.0000       5.127016       139.5132 
 217   0.0000       5.187713       141.1648 
 218   0.0000       5.225009       142.1797 
 219   0.0000       5.250389       142.8704 
 220   0.0000       5.256469       143.0358 
 221   0.0000       5.283417       143.7691 
 222   0.0000       5.331123       145.0672 
 223   0.0000       5.405123       147.0809 
 224   0.0000       5.468256       148.7988 
 225   0.0000       5.485018       149.2549 
 226   0.0000       5.552118       151.0808 
 227   0.0000       5.617847       152.8694 
 228   0.0000       5.657912       153.9596 
 229   0.0000       5.769955       157.0085 
 230   0.0000       5.797789       157.7659 
 231   0.0000       6.164164       167.7354 
 232   0.0000       6.242269       169.8608 
 233   0.0000       6.307337       171.6314 
 234   0.0000       6.524752       177.5475 
 235   0.0000       6.536293       177.8616 
 236   0.0000       6.586274       179.2216 
 237   0.0000       6.716087       182.7540 
 238   0.0000       6.782197       184.5530 
 239   0.0000       6.840735       186.1459 
 240   0.0000       6.876677       187.1239 
 241   0.0000       6.905424       187.9061 
 242   0.0000       6.983368       190.0271 
 243   0.0000       7.126727       193.9281 
 244   0.0000       7.138879       194.2588 
 245   0.0000       7.197357       195.8500 
 246   0.0000       7.253664       197.3822 
 247   0.0000       7.265465       197.7033 
 248   0.0000       7.284795       198.2294 
 249   0.0000       7.291711       198.4175 
 250   0.0000       7.296726       198.5540 
 251   0.0000       7.305329       198.7881 
 252   0.0000       7.316000       199.0785 
 253   0.0000       7.336358       199.6324 
 254   0.0000       7.345054       199.8691 
 255   0.0000       7.372315       200.6109 
 256   0.0000       7.390377       201.1024 
 257   0.0000       7.421773       201.9567 
 258   0.0000       7.441308       202.4883 
 259   0.0000       7.502980       204.1665 
 260   0.0000       7.522547       204.6989 
 261   0.0000       7.574974       206.1255 
 262   0.0000       7.645940       208.0566 
 263   0.0000       7.744565       210.7403 
 264   0.0000       7.875882       214.3136 
 265   0.0000       7.879082       214.4007 
 266   0.0000       7.900391       214.9806 
 267   0.0000       7.931346       215.8229 
 268   0.0000       8.022831       218.3123 
 269   0.0000       8.137784       221.4404 
 270   0.0000       8.727446       237.4859 
 271   0.0000       8.772366       238.7082 
 272   0.0000       8.937460       243.2007 
 273   0.0000      15.317665       416.8149 
 274   0.0000      15.709158       427.4679 
 275   0.0000      16.725815       455.1326 

                    ********************************
                    * MULLIKEN POPULATION ANALYSIS *
                    ********************************

-----------------------
MULLIKEN ATOMIC CHARGES
-----------------------
   0 O :   -0.536096
   1 H :    0.307926
   2 H :    0.196590
   3 O :   -0.433288
   4 H :    0.244286
   5 H :    0.220798
   6 O :   -0.484779
   7 H :    0.220241
   8 H :    0.264322
Sum of atomic charges:   -0.0000000

--------------------------------
MULLIKEN REDUCED ORBITAL CHARGES
--------------------------------
  0 O s       :     3.887656  s :     3.887656
      pz      :     1.701923  p :     4.622721
      px      :     1.303841
      py      :     1.616957
      dz2     :     0.001992  d :     0.024493
      dxz     :     0.007690
      dyz     :     0.003901
      dx2y2   :     0.001069
      dxy     :     0.009840
      f0      :     0.000200  f :     0.001226
      f+1     :     0.000115
      f-1     :     0.000165
      f+2     :     0.000068
      f-2     :     0.000430
      f+3     :     0.000073
      f-3     :     0.000175
  1 H s       :     0.576311  s :     0.576311
      pz      :     0.028117  p :     0.065463
      px      :     0.009167
      py      :     0.028178
      dz2     :     0.016576  d :     0.050300
      dxz     :     0.010450
      dyz     :     0.003014
      dx2y2   :     0.011197
      dxy     :     0.009063
  2 H s       :     0.680312  s :     0.680312
      pz      :     0.041869  p :     0.105691
      px      :     0.028903
      py      :     0.034918
      dz2     :     0.000546  d :     0.017408
      dxz     :     0.006072
      dyz     :     0.002169
      dx2y2   :     0.006678
      dxy     :     0.001943
  3 O s       :     3.865910  s :     3.865910
      pz      :     1.297372  p :     4.555529
      px      :     1.439211
      py      :     1.818946
      dz2     :     0.007151  d :     0.010986
      dxz     :    -0.000891
      dyz     :     0.000455
      dx2y2   :     0.003556
      dxy     :     0.000715
      f0      :     0.000296  f :     0.000864
      f+1     :     0.000055
      f-1     :     0.000063
      f+2     :     0.000006
      f-2     :    -0.000109
      f+3     :     0.000267
      f-3     :     0.000286
  4 H s       :     0.643017  s :     0.643017
      pz      :     0.027584  p :     0.093985
      px      :     0.029359
      py      :     0.037042
      dz2     :     0.003697  d :     0.018713
      dxz     :     0.003299
      dyz     :     0.001355
      dx2y2   :     0.005259
      dxy     :     0.005102
  5 H s       :     0.659505  s :     0.659505
      pz      :     0.020604  p :     0.099284
      px      :     0.034325
      py      :     0.044355
      dz2     :     0.001782  d :     0.020414
      dxz     :     0.008438
      dyz     :     0.009844
      dx2y2   :     0.000215
      dxy     :     0.000135
  6 O s       :     3.879536  s :     3.879536
      pz      :     1.334981  p :     4.585021
      px      :     1.486441
      py      :     1.763599
      dz2     :     0.005681  d :     0.018850
      dxz     :     0.005452
      dyz     :     0.000335
      dx2y2   :     0.003235
      dxy     :     0.004147
      f0      :     0.000158  f :     0.001372
      f+1     :     0.000199
      f-1     :     0.000261
      f+2     :     0.000117
      f-2     :     0.000161
      f+3     :     0.000087
      f-3     :     0.000389
  7 H s       :     0.661024  s :     0.661024
      pz      :     0.021751  p :     0.100242
      px      :     0.031933
      py      :     0.046558
      dz2     :     0.003462  d :     0.018494
      dxz     :     0.006123
      dyz     :     0.007049
      dx2y2   :     0.000540
      dxy     :     0.001321
  8 H s       :     0.631198  s :     0.631198
      pz      :     0.029385  p :     0.087077
      px      :     0.020170
      py      :     0.037522
      dz2     :     0.004167  d :     0.017403
      dxz     :     0.002235
      dyz     :     0.001906
      dx2y2   :     0.005302
      dxy     :     0.003793


                     *******************************
                     * LOEWDIN POPULATION ANALYSIS *
                     *******************************

----------------------
LOEWDIN ATOMIC CHARGES
----------------------
   0 O :    1.014251
   1 H :   -0.729818
   2 H :   -0.513058
   3 O :    1.085611
   4 H :   -0.402662
   5 H :   -0.452910
   6 O :    0.990460
   7 H :   -0.521072
   8 H :   -0.470801

-------------------------------
LOEWDIN REDUCED ORBITAL CHARGES
-------------------------------
  0 O s       :     3.009476  s :     3.009476
      pz      :     1.370706  p :     3.891663
      px      :     1.171985
      py      :     1.348971
      dz2     :     0.008313  d :     0.071080
      dxz     :     0.019101
      dyz     :     0.003252
      dx2y2   :     0.008907
      dxy     :     0.031507
      f0      :     0.000973  f :     0.013531
      f+1     :     0.001465
      f-1     :     0.001080
      f+2     :     0.000994
      f-2     :     0.004000
      f+3     :     0.000811
      f-3     :     0.004207
  1 H s       :     0.551666  s :     0.551666
      pz      :     0.218487  p :     0.642930
      px      :     0.241433
      py      :     0.183009
      dz2     :     0.105515  d :     0.535223
      dxz     :     0.130112
      dyz     :     0.074024
      dx2y2   :     0.108873
      dxy     :     0.116699
  2 H s       :     0.594614  s :     0.594614
      pz      :     0.162498  p :     0.555698
      px      :     0.193813
      py      :     0.199387
      dz2     :     0.033941  d :     0.362747
      dxz     :     0.081947
      dyz     :     0.040566
      dx2y2   :     0.116059
      dxy     :     0.090233
  3 O s       :     2.962740  s :     2.962740
      pz      :     1.189461  p :     3.829235
      px      :     1.235210
      py      :     1.404563
      dz2     :     0.044334  d :     0.103064
      dxz     :     0.020721
      dyz     :     0.005339
      dx2y2   :     0.018639
      dxy     :     0.014030
      f0      :     0.008059  f :     0.019350
      f+1     :     0.002017
      f-1     :     0.000746
      f+2     :     0.002066
      f-2     :     0.001835
      f+3     :     0.001172
      f-3     :     0.003456
  4 H s       :     0.562490  s :     0.562490
      pz      :     0.125106  p :     0.493997
      px      :     0.211759
      py      :     0.157132
      dz2     :     0.050414  d :     0.346174
      dxz     :     0.090489
      dyz     :     0.017797
      dx2y2   :     0.088569
      dxy     :     0.098904
  5 H s       :     0.575924  s :     0.575924
      pz      :     0.233316  p :     0.522228
      px      :     0.132687
      py      :     0.156226
      dz2     :     0.112749  d :     0.354757
      dxz     :     0.121066
      dyz     :     0.119240
      dx2y2   :     0.001460
      dxy     :     0.000242
  6 O s       :     3.022404  s :     3.022404
      pz      :     1.212298  p :     3.902541
      px      :     1.306465
      py      :     1.383778
      dz2     :     0.026533  d :     0.069966
      dxz     :     0.018592
      dyz     :     0.008150
      dx2y2   :     0.004765
      dxy     :     0.011925
      f0      :     0.003664  f :     0.014629
      f+1     :     0.003358
      f-1     :     0.001446
      f+2     :     0.001364
      f-2     :     0.001860
      f+3     :     0.000159
      f-3     :     0.002780
  7 H s       :     0.593057  s :     0.593057
      pz      :     0.234329  p :     0.559510
      px      :     0.160199
      py      :     0.164982
      dz2     :     0.113713  d :     0.368504
      dxz     :     0.117122
      dyz     :     0.108111
      dx2y2   :     0.011921
      dxy     :     0.017637
  8 H s       :     0.578967  s :     0.578967
      pz      :     0.139548  p :     0.530357
      px      :     0.222770
      py      :     0.168040
      dz2     :     0.065041  d :     0.361477
      dxz     :     0.075032
      dyz     :     0.038370
      dx2y2   :     0.094731
      dxy     :     0.088303


                      *****************************
                      * MAYER POPULATION ANALYSIS *
                      *****************************

  NA   - Mulliken gross atomic population
  ZA   - Total nuclear charge
  QA   - Mulliken gross atomic charge
  VA   - Mayer's total valence
  BVA  - Mayer's bonded valence
  FA   - Mayer's free valence

  ATOM       NA         ZA         QA         VA         BVA        FA
  0 O      8.5361     8.0000    -0.5361     1.9057     1.9057    -0.0000
  1 H      0.6921     1.0000     0.3079     0.9690     0.9690    -0.0000
  2 H      0.8034     1.0000     0.1966     1.0716     1.0716     0.0000
  3 O      8.4333     8.0000    -0.4333     1.9858     1.9858     0.0000
  4 H      0.7557     1.0000     0.2443     1.0155     1.0155    -0.0000
  5 H      0.7792     1.0000     0.2208     1.0329     1.0329    -0.0000
  6 O      8.4848     8.0000    -0.4848     1.9556     1.9556    -0.0000
  7 H      0.7798     1.0000     0.2202     1.0371     1.0371    -0.0000
  8 H      0.7357     1.0000     0.2643     0.9927     0.9927     0.0000

  Mayer bond orders larger than 0.100000
B(  0-O ,  1-H ) :   0.9085 B(  0-O ,  2-H ) :   1.0330 B(  3-O ,  4-H ) :   0.9848 
B(  3-O ,  5-H ) :   1.0036 B(  6-O ,  7-H ) :   1.0009 B(  6-O ,  8-H ) :   0.9558 


-------
TIMINGS
-------

Total SCF time: 0 days 0 hours 0 min 11 sec 

Total time                  ....      11.813 sec
Sum of individual times     ....      11.586 sec  ( 98.1%)

Fock matrix formation       ....      11.315 sec  ( 95.8%)
Diagonalization             ....       0.065 sec  (  0.5%)
Density matrix formation    ....       0.008 sec  (  0.1%)
Population analysis         ....       0.009 sec  (  0.1%)
Initial guess               ....       0.095 sec  (  0.8%)
Orbital Transformation      ....       0.000 sec  (  0.0%)
Orbital Orthonormalization  ....       0.000 sec  (  0.0%)
DIIS solution               ....       0.024 sec  (  0.2%)
SOSCF solution              ....       0.041 sec  (  0.3%)


           ************************************************************
           *        Program running with 12 parallel MPI-processes    *
           *              working on a common directory               *
           ************************************************************

------------------------------------------------------------------------------
                                ORCA  MP2 
------------------------------------------------------------------------------

Freezing NCore=6 chemical core electrons
MP2 will be done in the AO integral direct mode
The Q1-step will be done using symmetric double matrices
Dimension of the basis                    ...  276
Memory devoted for MP2                    ... 8000 MB   
Memory needed for all in one shot         ...   81 MB
Number of MOs that can be treated together...   98      
MP2 density construction                  ... relaxed
The MP2 gradient is requested => amplitudes will be stored on disk
Total number of MOs              ...   12
Number of MOs treated per batch  ...    1 
Number of batches necessary      ...    1 
OPERATORS   0/  0 PASS   0
-----------------------------------------------
 MP2 CORRELATION ENERGY   :     -0.812877351 Eh
-----------------------------------------------


---------------------
MP2 DENSITY FORMATION
---------------------

Completing the external part of the density      ... done
Storing the unrelaxed density                    ... done

Calculating G(D)                                 ... done
Completing the Lagrangian                        ... done
Solving the Z-vector equations                   ... 

------------------------------------------------------------------------------
                           ORCA CP-SCF CALCULATION
------------------------------------------------------------------------------

Input orbitals are from        ... 6h2o.temelso.etal.dset.3h2o-orca.engrad-mp2.augccpvtz-150.to.159.gbw
Input Perturbation             ... 6h2o.temelso.etal.dset.3h2o-orca.engrad-mp2.augccpvtz-150.to.159.pin.tmp
Wavefunction output            ... 6h2o.temelso.etal.dset.3h2o-orca.engrad-mp2.augccpvtz-150.to.159.pout.tmp
Perturbation mode              ... Real perturbation (singlet)
Solver                         ... POPLE
Max. number of iterations      ... 128
Convergence tolerance          ... 1.000e-08
Integral handling              ... Direct
Number of perturbations        ... 1
Number of operators            ... 1
Orbital ranges used for CP-SCF:
 Operator 0:  Orbitals   0... 14  to  15...275
Variables per vector in CP-SCF ... 3915
Number of vectors sought       ... 1
     CP-SCF ITERATION   0: 
     CP-SCF ITERATION   1:      0.000326852685
     CP-SCF ITERATION   2:      0.000016248246
     CP-SCF ITERATION   3:      0.000000498287
     CP-SCF ITERATION   4:      0.000000032589
     CP-SCF ITERATION   5:      0.000000005849
                                                 ... done
Finalizing the relaxed density                   ... done
Transforming P to the AO basis                   ... done
Storing the relaxed density                      ... done

------------------------------------
ENERGY WEIGHTED DENSITY FINALIZATION
------------------------------------

Gathering the parts of the W-matrix              ...                                                      done
Forming the Z-density                            ... done
Transforming Z to the AO basis                   ... done
Calculating G(Z)                                 ... done
Finalizing the W-matrix                          ...                                                      done
Transforming W to the AO basis and storing       ... done

                *********************************************
                * UNRELAXED MP2 DENSITY POPULATION ANALYSIS *
                *********************************************

------------------------------------------------------------------------------
                           ORCA POPULATION ANALYSIS
------------------------------------------------------------------------------
Input electron density              ... 6h2o.temelso.etal.dset.3h2o-orca.engrad-mp2.augccpvtz-150.to.159.pmp2ur
BaseName (.gbw .S,...)              ... 6h2o.temelso.etal.dset.3h2o-orca.engrad-mp2.augccpvtz-150.to.159

                    ********************************
                    * MULLIKEN POPULATION ANALYSIS *
                    ********************************

-----------------------
MULLIKEN ATOMIC CHARGES
-----------------------
   0 O :   -0.521820
   1 H :    0.301154
   2 H :    0.190267
   3 O :   -0.422437
   4 H :    0.238058
   5 H :    0.215012
   6 O :   -0.471953
   7 H :    0.214080
   8 H :    0.257640
Sum of atomic charges:   -0.0000000

--------------------------------
MULLIKEN REDUCED ORBITAL CHARGES
--------------------------------
  0 O s       :     3.880938  s :     3.880938
      pz      :     1.686081  p :     4.581668
      px      :     1.293638
      py      :     1.601948
      dz2     :     0.008086  d :     0.054100
      dxz     :     0.013656
      dyz     :     0.009888
      dx2y2   :     0.007395
      dxy     :     0.015075
      f0      :     0.000750  f :     0.005115
      f+1     :     0.000655
      f-1     :     0.000731
      f+2     :     0.000632
      f-2     :     0.000987
      f+3     :     0.000617
      f-3     :     0.000743
  1 H s       :     0.583286  s :     0.583286
      pz      :     0.028479  p :     0.065743
      px      :     0.008345
      py      :     0.028919
      dz2     :     0.016669  d :     0.049817
      dxz     :     0.010121
      dyz     :     0.002976
      dx2y2   :     0.011108
      dxy     :     0.008943
  2 H s       :     0.685786  s :     0.685786
      pz      :     0.043495  p :     0.106524
      px      :     0.027734
      py      :     0.035296
      dz2     :     0.000582  d :     0.017423
      dxz     :     0.006117
      dyz     :     0.002243
      dx2y2   :     0.006644
      dxy     :     0.001836
  3 O s       :     3.860665  s :     3.860665
      pz      :     1.286893  p :     4.517364
      px      :     1.427083
      py      :     1.803388
      dz2     :     0.011860  d :     0.039594
      dxz     :     0.005157
      dyz     :     0.006542
      dx2y2   :     0.009429
      dxy     :     0.006606
      f0      :     0.000863  f :     0.004814
      f+1     :     0.000628
      f-1     :     0.000607
      f+2     :     0.000578
      f-2     :     0.000477
      f+3     :     0.000821
      f-3     :     0.000840
  4 H s       :     0.649268  s :     0.649268
      pz      :     0.028320  p :     0.094058
      px      :     0.027393
      py      :     0.038345
      dz2     :     0.003726  d :     0.018616
      dxz     :     0.003241
      dyz     :     0.001469
      dx2y2   :     0.005132
      dxy     :     0.005049
  5 H s       :     0.665285  s :     0.665285
      pz      :     0.017880  p :     0.099376
      px      :     0.035337
      py      :     0.046159
      dz2     :     0.001502  d :     0.020327
      dxz     :     0.008366
      dyz     :     0.009835
      dx2y2   :     0.000347
      dxy     :     0.000278
  6 O s       :     3.873380  s :     3.873380
      pz      :     1.324493  p :     4.546282
      px      :     1.472495
      py      :     1.749293
      dz2     :     0.010969  d :     0.047112
      dxz     :     0.010839
      dyz     :     0.006411
      dx2y2   :     0.009051
      dxy     :     0.009842
      f0      :     0.000711  f :     0.005179
      f+1     :     0.000750
      f-1     :     0.000776
      f+2     :     0.000665
      f-2     :     0.000707
      f+3     :     0.000638
      f-3     :     0.000933
  7 H s       :     0.666507  s :     0.666507
      pz      :     0.019780  p :     0.100917
      px      :     0.032998
      py      :     0.048139
      dz2     :     0.003304  d :     0.018496
      dxz     :     0.006082
      dyz     :     0.007010
      dx2y2   :     0.000666
      dxy     :     0.001434
  8 H s       :     0.637589  s :     0.637589
      pz      :     0.030023  p :     0.087404
      px      :     0.018777
      py      :     0.038604
      dz2     :     0.004219  d :     0.017366
      dxz     :     0.002195
      dyz     :     0.001966
      dx2y2   :     0.005276
      dxy     :     0.003710


                     *******************************
                     * LOEWDIN POPULATION ANALYSIS *
                     *******************************

----------------------
LOEWDIN ATOMIC CHARGES
----------------------
   0 O :    1.010525
   1 H :   -0.727269
   2 H :   -0.511716
[...]
      dyz     :     0.012989
      dx2y2   :     0.028989
      dxy     :     0.056458
      f0      :     0.001925  f :     0.022773
      f+1     :     0.002419
      f-1     :     0.002112
      f+2     :     0.001532
      f-2     :     0.002950
      f+3     :     0.002908
      f-3     :     0.008928
  7 H s       :     0.535594  s :     0.535594
      pz      :     0.158675  p :     0.612003
      px      :     0.269288
      py      :     0.184041
      dz2     :     0.063218  d :     0.514019
      dxz     :     0.111958
      dyz     :     0.045877
      dx2y2   :     0.141445
      dxy     :     0.151520
  8 H s       :     0.576277  s :     0.576277
      pz      :     0.163457  p :     0.521508
      px      :     0.178505
      py      :     0.179546
      dz2     :     0.036332  d :     0.346584
      dxz     :     0.067098
      dyz     :     0.049054
      dx2y2   :     0.111300
      dxy     :     0.082800


                      *****************************
                      * MAYER POPULATION ANALYSIS *
                      *****************************

  NA   - Mulliken gross atomic population
  ZA   - Total nuclear charge
  QA   - Mulliken gross atomic charge
  VA   - Mayer's total valence
  BVA  - Mayer's bonded valence
  FA   - Mayer's free valence

  ATOM       NA         ZA         QA         VA         BVA        FA
  0 O      8.4126     8.0000    -0.4126     2.2529     1.8781     0.3749
  1 H      0.7850     1.0000     0.2150     1.0437     0.9777     0.0660
  2 H      0.7647     1.0000     0.2353     1.0291     0.9628     0.0663
  3 O      8.5200     8.0000    -0.5200     2.1622     1.7815     0.3807
  4 H      0.8140     1.0000     0.1860     1.0856     1.0160     0.0696
  5 H      0.7126     1.0000     0.2874     0.9985     0.9347     0.0638
  6 O      8.4673     8.0000    -0.4673     2.1999     1.8236     0.3763
  7 H      0.7068     1.0000     0.2932     1.0005     0.9381     0.0624
  8 H      0.8170     1.0000     0.1830     1.0835     1.0147     0.0688

  Mayer bond orders larger than 0.100000
B(  0-O ,  1-H ) :   0.9486 B(  0-O ,  2-H ) :   0.9316 B(  3-O ,  4-H ) :   0.9730 
B(  3-O ,  5-H ) :   0.8563 B(  6-O ,  7-H ) :   0.8781 B(  6-O ,  8-H ) :   0.9852 



                *******************************************
                * RELAXED MP2 DENSITY POPULATION ANALYSIS *
                *******************************************

------------------------------------------------------------------------------
                           ORCA POPULATION ANALYSIS
------------------------------------------------------------------------------
Input electron density              ... 6h2o.temelso.etal.dset.3h2o-orca.engrad-mp2.augccpvtz-150.to.159_job10.pmp2re
BaseName (.gbw .S,...)              ... 6h2o.temelso.etal.dset.3h2o-orca.engrad-mp2.augccpvtz-150.to.159_job10

                    ********************************
                    * MULLIKEN POPULATION ANALYSIS *
                    ********************************

-----------------------
MULLIKEN ATOMIC CHARGES
-----------------------
   0 O :   -0.381586
   1 H :    0.212677
   2 H :    0.230755
   3 O :   -0.515634
   4 H :    0.189241
   5 H :    0.259485
   6 O :   -0.442950
   7 H :    0.261745
   8 H :    0.186267
Sum of atomic charges:    0.0000000

--------------------------------
MULLIKEN REDUCED ORBITAL CHARGES
--------------------------------
  0 O s       :     3.846515  s :     3.846515
      pz      :     1.322194  p :     4.491155
      px      :     1.455198
      py      :     1.713763
      dz2     :     0.006918  d :     0.039070
      dxz     :     0.009840
      dyz     :     0.006992
      dx2y2   :     0.009037
      dxy     :     0.006284
      f0      :     0.000572  f :     0.004846
      f+1     :     0.000683
      f-1     :     0.000798
      f+2     :     0.000694
      f-2     :     0.000700
      f+3     :     0.000680
      f-3     :     0.000720
  1 H s       :     0.658151  s :     0.658151
      pz      :     0.016817  p :     0.110507
      px      :     0.038138
      py      :     0.055552
      dz2     :     0.003032  d :     0.018666
      dxz     :     0.006145
      dyz     :     0.007404
      dx2y2   :     0.000458
      dxy     :     0.001627
  2 H s       :     0.646930  s :     0.646930
      pz      :     0.031673  p :     0.105469
      px      :     0.030068
      py      :     0.043728
      dz2     :     0.004575  d :     0.016846
      dxz     :     0.001829
      dyz     :     0.001920
      dx2y2   :     0.005754
      dxy     :     0.002768
  3 O s       :     3.885917  s :     3.885917
      pz      :     1.471112  p :     4.572633
      px      :     1.758162
      py      :     1.343359
      dz2     :     0.012275  d :     0.052058
      dxz     :     0.009294
      dyz     :     0.011265
      dx2y2   :     0.012188
      dxy     :     0.007036
      f0      :     0.000635  f :     0.005025
      f+1     :     0.000894
      f-1     :     0.000588
      f+2     :     0.000652
      f-2     :     0.000741
      f+3     :     0.000624
      f-3     :     0.000890
  4 H s       :     0.678211  s :     0.678211
      pz      :     0.028136  p :     0.118061
      px      :     0.055209
      py      :     0.034716
      dz2     :     0.004992  d :     0.014486
      dxz     :     0.003331
      dyz     :     0.001495
      dx2y2   :     0.002923
      dxy     :     0.001745
  5 H s       :     0.599544  s :     0.599544
      pz      :     0.035957  p :     0.100182
      px      :     0.061126
      py      :     0.003100
      dz2     :     0.002983  d :     0.040789
      dxz     :     0.000536
      dyz     :     0.010588
      dx2y2   :     0.004946
      dxy     :     0.021736
  6 O s       :     3.861745  s :     3.861745
      pz      :     1.779634  p :     4.530448
      px      :     1.260812
      py      :     1.490002
      dz2     :     0.008823  d :     0.045998
      dxz     :     0.008529
      dyz     :     0.007546
      dx2y2   :     0.004536
      dxy     :     0.016565
      f0      :     0.000813  f :     0.004759
      f+1     :     0.000946
      f-1     :     0.000678
      f+2     :     0.000523
      f-2     :     0.000740
      f+3     :     0.000751
      f-3     :     0.000309
  7 H s       :     0.597234  s :     0.597234
      pz      :     0.057389  p :     0.092291
      px      :     0.002772
      py      :     0.032129
      dz2     :     0.005987  d :     0.048730
      dxz     :     0.015145
      dyz     :     0.003970
      dx2y2   :     0.014427
      dxy     :     0.009201
  8 H s       :     0.681641  s :     0.681641
      pz      :     0.055627  p :     0.115111
      px      :     0.024274
      py      :     0.035210
      dz2     :     0.001144  d :     0.016980
      dxz     :     0.005486
      dyz     :     0.002237
      dx2y2   :     0.006381
      dxy     :     0.001732


                     *******************************
                     * LOEWDIN POPULATION ANALYSIS *
                     *******************************

----------------------
LOEWDIN ATOMIC CHARGES
----------------------
   0 O :    1.095745
   1 H :   -0.449947
   2 H :   -0.401953
   3 O :    1.013347
   4 H :   -0.517889
   5 H :   -0.738724
   6 O :    1.113070
   7 H :   -0.666724
   8 H :   -0.446925

-------------------------------
LOEWDIN REDUCED ORBITAL CHARGES
-------------------------------
  0 O s       :     2.960616  s :     2.960616
      pz      :     1.200562  p :     3.791103
      px      :     1.245132
      py      :     1.345409
      dz2     :     0.035705  d :     0.128781
      dxz     :     0.028908
      dyz     :     0.015214
      dx2y2   :     0.018115
      dxy     :     0.030839
      f0      :     0.005081  f :     0.023755
      f+1     :     0.004460
      f-1     :     0.002340
      f+2     :     0.002221
      f-2     :     0.002981
      f+3     :     0.001116
      f-3     :     0.005555
  1 H s       :     0.567666  s :     0.567666
      pz      :     0.227200  p :     0.536041
      px      :     0.146766
      py      :     0.162075
      dz2     :     0.110829  d :     0.346240
      dxz     :     0.106691
      dyz     :     0.101644
      dx2y2   :     0.011410
      dxy     :     0.015666
  2 H s       :     0.555369  s :     0.555369
      pz      :     0.136593  p :     0.508700
      px      :     0.202917
      py      :     0.169190
      dz2     :     0.060688  d :     0.337884
      dxz     :     0.072110
      dyz     :     0.037281
      dx2y2   :     0.084046
      dxy     :     0.083758
  3 O s       :     3.011312  s :     3.011312
      pz      :     1.286023  p :     3.858382
      px      :     1.369825
      py      :     1.202534
      dz2     :     0.021737  d :     0.098724
      dxz     :     0.013791
      dyz     :     0.025484
      dx2y2   :     0.028529
      dxy     :     0.009183
      f0      :     0.001827  f :     0.018236
      f+1     :     0.002967
      f-1     :     0.004637
      f+2     :     0.001750
      f-2     :     0.002482
      f+3     :     0.000740
      f-3     :     0.003833
  4 H s       :     0.587503  s :     0.587503
      pz      :     0.239374  p :     0.578115
      px      :     0.191694
      py      :     0.147046
      dz2     :     0.112406  d :     0.352271
      dxz     :     0.085355
      dyz     :     0.077875
      dx2y2   :     0.044135
      dxy     :     0.032501
  5 H s       :     0.550532  s :     0.550532
      pz      :     0.158826  p :     0.663917
      px      :     0.161460
      py      :     0.343631
      dz2     :     0.050594  d :     0.524275
      dxz     :     0.005124
      dyz     :     0.173583
      dx2y2   :     0.149301
      dxy     :     0.145673
  6 O s       :     2.950593  s :     2.950593
      pz      :     1.367582  p :     3.779240
      px      :     1.152051
      py      :     1.259608
      dz2     :     0.023805  d :     0.133987
      dxz     :     0.011299
      dyz     :     0.013254
      dx2y2   :     0.029329
      dxy     :     0.056301
      f0      :     0.001926  f :     0.023110
      f+1     :     0.002510
      f-1     :     0.002161
      f+2     :     0.001550
      f-2     :     0.002999
      f+3     :     0.002923
      f-3     :     0.009041
  7 H s       :     0.536621  s :     0.536621
      pz      :     0.167157  p :     0.624948
      px      :     0.269248
      py      :     0.188544
      dz2     :     0.061732  d :     0.505155
      dxz     :     0.110270
      dyz     :     0.044340
      dx2y2   :     0.139112
      dxy     :     0.149699
  8 H s       :     0.571107  s :     0.571107
      pz      :     0.172907  p :     0.536280
      px      :     0.178642
      py      :     0.184731
      dz2     :     0.035690  d :     0.339537
      dxz     :     0.065472
      dyz     :     0.047037
      dx2y2   :     0.108920
      dxy     :     0.082418


                      *****************************
                      * MAYER POPULATION ANALYSIS *
                      *****************************

  NA   - Mulliken gross atomic population
  ZA   - Total nuclear charge
  QA   - Mulliken gross atomic charge
  VA   - Mayer's total valence
  BVA  - Mayer's bonded valence
  FA   - Mayer's free valence

  ATOM       NA         ZA         QA         VA         BVA        FA
  0 O      8.3816     8.0000    -0.3816     2.3216     1.9534     0.3682
  1 H      0.7873     1.0000     0.2127     1.0573     0.9923     0.0650
  2 H      0.7692     1.0000     0.2308     1.0450     0.9795     0.0655
  3 O      8.5156     8.0000    -0.5156     2.1728     1.7997     0.3731
  4 H      0.8108     1.0000     0.1892     1.0946     1.0261     0.0685
  5 H      0.7405     1.0000     0.2595     1.0443     0.9826     0.0618
  6 O      8.4430     8.0000    -0.4430     2.2388     1.8692     0.3696
  7 H      0.7383     1.0000     0.2617     1.0518     0.9912     0.0606
  8 H      0.8137     1.0000     0.1863     1.0908     1.0231     0.0678

  Mayer bond orders larger than 0.100000
B(  0-O ,  1-H ) :   0.9615 B(  0-O ,  2-H ) :   0.9459 B(  3-O ,  4-H ) :   0.9821 
B(  3-O ,  5-H ) :   0.8642 B(  6-O ,  7-H ) :   0.8804 B(  6-O ,  8-H ) :   0.9915 



----------------------------------
MP2 DERIVATIVE INTEGRAL GENERATION
----------------------------------


Input Wavefunction Amplitudes       ... 6h2o.temelso.etal.dset.3h2o-orca.engrad-mp2.augccpvtz-150.to.159_job10.mp2tsaa.tmp
Input Correlated Electron Density   ... 6h2o.temelso.etal.dset.3h2o-orca.engrad-mp2.augccpvtz-150.to.159_job10.pmp2re
Input Energy Weighted Density       ... 6h2o.temelso.etal.dset.3h2o-orca.engrad-mp2.augccpvtz-150.to.159_job10.wmp2.tmp
Input SCF Electron Density          ... 6h2o.temelso.etal.dset.3h2o-orca.engrad-mp2.augccpvtz-150.to.159_job10.scfp

One-Electron Terms    ...
                        ... One-Electron Terms done
Prescreening matrices              ... done

Batch handling in the gradient evaluation:
Memory available                      ... 8000.0 MB
Memory per occupied orbital in Q2     ...    7.0 MB
Memory per occupied orbital in Q3     ...    0.1 MB
Total memory requirement per |i>      ...    7.1 MB
Max. Number of orbitals possible      ...   1130
Number of orbitals treated per batch  ...     12
Number of batches to be done          ...      1
Batch   0: i=    3 ...    14

---------------------------------------
MP2 TOTAL ENERGY:     -229.003595571 Eh
---------------------------------------

The final MP2 gradient
  0:   0.02186023   0.00659947  -0.00708520
  1:  -0.00012171   0.00132093  -0.00170418
  2:  -0.01855379  -0.00932371   0.00928931
  3:  -0.00163568  -0.00494117  -0.00403322
  4:   0.00197030  -0.00286757   0.00380365
  5:  -0.00032972   0.01157737   0.00108037
  6:   0.00439151  -0.01029837   0.00140525
  7:  -0.01001761   0.00542525  -0.00217531
  8:   0.00243647   0.00250780  -0.00058068

-----------------------------------
NORM OF THE MP2 GRADIENT:  0.039666
-----------------------------------

-------------------------   --------------------
FINAL SINGLE POINT ENERGY      -229.003595570527
-------------------------   --------------------


                            ***************************************
                            *     ORCA property calculations      *
                            ***************************************

                                    ---------------------
                                    Active property flags
                                    ---------------------
   (+) Dipole Moment


------------------------------------------------------------------------------
                       ORCA ELECTRIC PROPERTIES CALCULATION
------------------------------------------------------------------------------

Dipole Moment Calculation                       ... on
Quadrupole Moment Calculation                   ... off
Polarizability Calculation                      ... off
GBWName                                         ... 6h2o.temelso.etal.dset.3h2o-orca.engrad-mp2.augccpvtz-150.to.159_job10.gbw
Electron density file                           ... 6h2o.temelso.etal.dset.3h2o-orca.engrad-mp2.augccpvtz-150.to.159_job10.scfp
The origin for moment calculation is the CENTER OF MASS  = (-0.000004,  0.000008  0.000000)

-------------
DIPOLE MOMENT
-------------
                                X             Y             Z
Electronic contribution:     -0.17890       0.22742      -0.05092
Nuclear contribution   :     -0.64117       1.24671       0.06692
                        -----------------------------------------
Total Dipole Moment    :     -0.82006       1.47413       0.01600
                        -----------------------------------------
Magnitude (a.u.)       :      1.68696
Magnitude (Debye)      :      4.28791



--------------------
Rotational spectrum 
--------------------
 
Rotational constants in cm-1:     0.591563     0.084169     0.074863 
Rotational constants in MHz : 17734.600886  2523.320799  2244.338895 

 Dipole components along the rotational axes: 
x,y,z [a.u.] :     1.684935    -0.074157     0.036399 
x,y,z [Debye]:     4.282765    -0.188491     0.092520 

 

                         *** MP2 UNRELAXED DENSITY ***

------------------------------------------------------------------------------
                       ORCA ELECTRIC PROPERTIES CALCULATION
------------------------------------------------------------------------------

Dipole Moment Calculation                       ... on
Quadrupole Moment Calculation                   ... off
Polarizability Calculation                      ... off
GBWName                                         ... 6h2o.temelso.etal.dset.3h2o-orca.engrad-mp2.augccpvtz-150.to.159_job10.gbw
Electron density file                           ... 6h2o.temelso.etal.dset.3h2o-orca.engrad-mp2.augccpvtz-150.to.159_job10.pmp2ur
The origin for moment calculation is the CENTER OF MASS  = (-0.000004,  0.000008  0.000000)

-------------
DIPOLE MOMENT
-------------
                                X             Y             Z
Electronic contribution:     -0.17320       0.21487      -0.05295
Nuclear contribution   :     -0.64117       1.24671       0.06692
                        -----------------------------------------
Total Dipole Moment    :     -0.81437       1.46158       0.01397
                        -----------------------------------------
Magnitude (a.u.)       :      1.67320
Magnitude (Debye)      :      4.25295



--------------------
Rotational spectrum 
--------------------
 
Rotational constants in cm-1:     0.591563     0.084169     0.074863 
Rotational constants in MHz : 17734.600886  2523.320799  2244.338895 

 Dipole components along the rotational axes: 
x,y,z [a.u.] :     1.671301    -0.071842     0.034706 
x,y,z [Debye]:     4.248110    -0.182607     0.088215 

 

                           *** MP2 RELAXED DENSITY ***

------------------------------------------------------------------------------
                       ORCA ELECTRIC PROPERTIES CALCULATION
------------------------------------------------------------------------------

Dipole Moment Calculation                       ... on
Quadrupole Moment Calculation                   ... off
Polarizability Calculation                      ... off
GBWName                                         ... 6h2o.temelso.etal.dset.3h2o-orca.engrad-mp2.augccpvtz-150.to.159_job10.gbw
Electron density file                           ... 6h2o.temelso.etal.dset.3h2o-orca.engrad-mp2.augccpvtz-150.to.159_job10.pmp2re
The origin for moment calculation is the CENTER OF MASS  = (-0.000004,  0.000008  0.000000)

-------------
DIPOLE MOMENT
-------------
                                X             Y             Z
Electronic contribution:     -0.16110       0.18872      -0.05565
Nuclear contribution   :     -0.64117       1.24671       0.06692
                        -----------------------------------------
Total Dipole Moment    :     -0.80227       1.43543       0.01128
                        -----------------------------------------
Magnitude (a.u.)       :      1.64446
Magnitude (Debye)      :      4.17987



--------------------
Rotational spectrum 
--------------------
 
Rotational constants in cm-1:     0.591563     0.084169     0.074863 
Rotational constants in MHz : 17734.600886  2523.320799  2244.338895 

 Dipole components along the rotational axes: 
x,y,z [a.u.] :     1.642737    -0.067739     0.032552 
x,y,z [Debye]:     4.175506    -0.172178     0.082742 

 

Timings for individual modules:

Sum of individual times         ...       86.697 sec (=   1.445 min)
GTO integral calculation        ...        0.863 sec (=   0.014 min)   1.0 %
SCF iterations                  ...       22.017 sec (=   0.367 min)  25.4 %
MP2 module                      ...       63.817 sec (=   1.064 min)  73.6 %



                             ****ORCA TERMINATED NORMALLY****
TOTAL RUN TIME: 0 days 0 hours 12 minutes 36 seconds 288 msec
