
                                 *****************
                                 * O   R   C   A *
                                 *****************

           --- An Ab Initio, DFT and Semiempirical electronic structure package ---

                  #######################################################
                  #                        -***-                        #
                  #          Department of theory and spectroscopy      #
                  #               Directorship: Frank Neese             #
                  #        Max Planck Institute fuer Kohlenforschung    #
                  #                Kaiser Wilhelm Platz 1               #
                  #                 D-45470 Muelheim/Ruhr               #
                  #                      Germany                        #
                  #                                                     #
                  #                  All rights reserved                #
                  #                        -***-                        #
                  #######################################################


                         Program Version 4.2.0 -  RELEASE  -


 With contributions from (in alphabetic order):
   Daniel Aravena         : Magnetic Suceptibility
   Michael Atanasov       : Ab Initio Ligand Field Theory (pilot matlab implementation)
   Alexander A. Auer      : GIAO ZORA, VPT2
   Ute Becker             : Parallelization
   Giovanni Bistoni       : ED, misc. LED, open-shell LED, HFLED
   Martin Brehm           : Molecular dynamics
   Dmytro Bykov           : SCF Hessian
   Vijay G. Chilkuri      : MRCI spin determinant printing, contributions to CSF-ICE
   Dipayan Datta          : RHF DLPNO-CCSD density
   Achintya Kumar Dutta   : EOM-CC, STEOM-CC
   Dmitry Ganyushin       : Spin-Orbit,Spin-Spin,Magnetic field MRCI
   Miquel Garcia          : C-PCM Hessian, Gaussian charge scheme
   Yang Guo               : DLPNO-NEVPT2, CIM, IAO-localization
   Andreas Hansen         : Spin unrestricted coupled pair/coupled cluster methods
   Benjamin Helmich-Paris : CASSCF linear response (MC-RPA)
   Lee Huntington         : MR-EOM, pCC
   Robert Izsak           : Overlap fitted RIJCOSX, COSX-SCS-MP3, EOM
   Christian Kollmar      : KDIIS, OOCD, Brueckner-CCSD(T), CCSD density
   Simone Kossmann        : Meta GGA functionals, TD-DFT gradient, OOMP2, MP2 Hessian
   Martin Krupicka        : AUTO-CI
   Lucas Lang             : DCDCAS
   Dagmar Lenk            : GEPOL surface, SMD
   Dimitrios Liakos       : Extrapolation schemes; Compound Job, initial MDCI parallelization
   Dimitrios Manganas     : Further ROCIS development; embedding schemes
   Dimitrios Pantazis     : SARC Basis sets
   Taras Petrenko         : DFT Hessian,TD-DFT gradient, ASA, ECA, R-Raman, ABS, FL, XAS/XES, NRVS
   Peter Pinski           : DLPNO-MP2, DLPNO-MP2 Gradient
   Christoph Reimann      : Effective Core Potentials
   Marius Retegan         : Local ZFS, SOC
   Christoph Riplinger    : Optimizer, TS searches, QM/MM, DLPNO-CCSD(T), (RO)-DLPNO pert. Triples
   Tobias Risthaus        : Range-separated hybrids, TD-DFT gradient, RPA, STAB
   Michael Roemelt        : Original ROCIS implementation
   Masaaki Saitow         : Open-shell DLPNO-CCSD energy and density
   Barbara Sandhoefer     : DKH picture change effects
   Avijit Sen             : IP-ROCIS
   Kantharuban Sivalingam : CASSCF convergence, NEVPT2, FIC-MRCI
   Bernardo de Souza      : ESD, SOC TD-DFT
   Georgi Stoychev        : AutoAux, RI-MP2 NMR
   Willem Van den Heuvel  : Paramagnetic NMR
   Boris Wezisla          : Elementary symmetry handling
   Frank Wennmohs         : Technical directorship


 We gratefully acknowledge several colleagues who have allowed us to
 interface, adapt or use parts of their codes:
   Stefan Grimme, W. Hujo, H. Kruse,             : VdW corrections, initial TS optimization,
                  C. Bannwarth                     DFT functionals, gCP, sTDA/sTD-DF
   Ed Valeev, F. Pavosevic, A. Kumar             : LibInt (2-el integral package), F12 methods
   Garnet Chan, S. Sharma, J. Yang, R. Olivares  : DMRG
   Ulf Ekstrom                                   : XCFun DFT Library
   Mihaly Kallay                                 : mrcc  (arbitrary order and MRCC methods)
   Andreas Klamt, Michael Diedenhofen            : otool_cosmo (COSMO solvation model)
   Jiri Pittner, Ondrej Demel                    : Mk-CCSD
   Frank Weinhold                                : gennbo (NPA and NBO analysis)
   Christopher J. Cramer and Donald G. Truhlar   : smd solvation model
   Lars Goerigk                                  : TD-DFT with DH, B97 family of functionals
   V. Asgeirsson, H. Jonsson                     : NEB implementation
   FAccTs GmbH                                   : IRC, NEB, NEB-TS, Multilevel, MM, QM/MM, CI optimization
   S Lehtola, MJT Oliveira, MAL Marques          : LibXC Library


 Your calculation uses the libint2 library for the computation of 2-el integrals
 For citations please refer to: http://libint.valeyev.net

 Your ORCA version has been built with support for libXC version: 4.2.3
 For citations please refer to: https://tddft.org/programs/libxc/

 This ORCA versions uses:
   CBLAS   interface :  Fast vector & matrix operations
   LAPACKE interface :  Fast linear algebra routines
   SCALAPACK package :  Parallel linear algebra routines


----- Orbital basis set information -----
Your calculation utilizes the basis: aug-cc-pVTZ 
    H, B-Ne : Obtained from the ccRepo (grant-hill.group.shef.ac.uk/ccrepo) Feb. 2017
              R. A. Kendall, T. H. Dunning, Jr., R. J. Harrison, J. Chem. Phys. 96, 6796 (1992)
         He : Obtained from the ccRepo (grant-hill.group.shef.ac.uk/ccrepo) Feb. 2017
              D. E. Woon, T. H. Dunning, Jr., J. Chem. Phys. 100, 2975 (1994)
  Li-Be, Na : Obtained from the ccRepo (grant-hill.group.shef.ac.uk/ccrepo) Feb. 2017
              B. P. Prascher, D. E. Woon, K. A. Peterson, T. H. Dunning, Jr., A. K. Wilson, Theor. Chem. Acc. 128, 69 (2011)
         Mg : Obtained from the Peterson Research Group Website (tyr0.chem.wsu.edu/~kipeters) Feb. 2017
              B. P. Prascher, D. E. Woon, K. A. Peterson, T. H. Dunning, Jr., A. K. Wilson, Theor. Chem. Acc. 128, 69 (2011)
      Al-Ar : Obtained from the ccRepo (grant-hill.group.shef.ac.uk/ccrepo) Feb. 2017
              D. E. Woon, T. H. Dunning, Jr., J. Chem. Phys. 98, 1358 (1993)
      Sc-Zn : Obtained from the ccRepo (grant-hill.group.shef.ac.uk/ccrepo) Feb. 2017
              N. B. Balabanov, K. A. Peterson, J. Chem. Phys. 123, 064107 (2005)
              N. B. Balabanov, K. A. Peterson, J. Chem. Phys. 125, 074110 (2006)
      Ga-Kr : Obtained from the ccRepo (grant-hill.group.shef.ac.uk/ccrepo) Feb. 2017
              A. K. Wilson, D. E. Woon, K. A. Peterson, T. H. Dunning, Jr., J. Chem. Phys. 110, 7667 (1999)
     Ag, Au : Obtained from the Peterson Research Group Website (tyr0.chem.wsu.edu/~kipeters) Feb. 2017
              K. A. Peterson, C. Puzzarini, Theor. Chem. Acc. 114, 283 (2005)

================================================================================
                                        WARNINGS
                       Please study these warnings very carefully!
================================================================================


WARNING: The frozen-core approximation for MP2-gradient calculations is turned on by default.

INFO   : the flag for use of LIBINT has been found!

----- Orbital basis set information -----
Your calculation utilizes the basis: aug-cc-pVTZ 
    H, B-Ne : Obtained from the ccRepo (grant-hill.group.shef.ac.uk/ccrepo) Feb. 2017
              R. A. Kendall, T. H. Dunning, Jr., R. J. Harrison, J. Chem. Phys. 96, 6796 (1992)
         He : Obtained from the ccRepo (grant-hill.group.shef.ac.uk/ccrepo) Feb. 2017
              D. E. Woon, T. H. Dunning, Jr., J. Chem. Phys. 100, 2975 (1994)
  Li-Be, Na : Obtained from the ccRepo (grant-hill.group.shef.ac.uk/ccrepo) Feb. 2017
              B. P. Prascher, D. E. Woon, K. A. Peterson, T. H. Dunning, Jr., A. K. Wilson, Theor. Chem. Acc. 128, 69 (2011)
         Mg : Obtained from the Peterson Research Group Website (tyr0.chem.wsu.edu/~kipeters) Feb. 2017
              B. P. Prascher, D. E. Woon, K. A. Peterson, T. H. Dunning, Jr., A. K. Wilson, Theor. Chem. Acc. 128, 69 (2011)
      Al-Ar : Obtained from the ccRepo (grant-hill.group.shef.ac.uk/ccrepo) Feb. 2017
              D. E. Woon, T. H. Dunning, Jr., J. Chem. Phys. 98, 1358 (1993)
      Sc-Zn : Obtained from the ccRepo (grant-hill.group.shef.ac.uk/ccrepo) Feb. 2017
              N. B. Balabanov, K. A. Peterson, J. Chem. Phys. 123, 064107 (2005)
              N. B. Balabanov, K. A. Peterson, J. Chem. Phys. 125, 074110 (2006)
      Ga-Kr : Obtained from the ccRepo (grant-hill.group.shef.ac.uk/ccrepo) Feb. 2017
              A. K. Wilson, D. E. Woon, K. A. Peterson, T. H. Dunning, Jr., J. Chem. Phys. 110, 7667 (1999)
     Ag, Au : Obtained from the Peterson Research Group Website (tyr0.chem.wsu.edu/~kipeters) Feb. 2017
              K. A. Peterson, C. Puzzarini, Theor. Chem. Acc. 114, 283 (2005)

================================================================================
                                        WARNINGS
                       Please study these warnings very carefully!
================================================================================


WARNING: The frozen-core approximation for MP2-gradient calculations is turned on by default.

INFO   : the flag for use of LIBINT has been found!

----- Orbital basis set information -----
Your calculation utilizes the basis: aug-cc-pVTZ 
    H, B-Ne : Obtained from the ccRepo (grant-hill.group.shef.ac.uk/ccrepo) Feb. 2017
              R. A. Kendall, T. H. Dunning, Jr., R. J. Harrison, J. Chem. Phys. 96, 6796 (1992)
         He : Obtained from the ccRepo (grant-hill.group.shef.ac.uk/ccrepo) Feb. 2017
              D. E. Woon, T. H. Dunning, Jr., J. Chem. Phys. 100, 2975 (1994)
  Li-Be, Na : Obtained from the ccRepo (grant-hill.group.shef.ac.uk/ccrepo) Feb. 2017
              B. P. Prascher, D. E. Woon, K. A. Peterson, T. H. Dunning, Jr., A. K. Wilson, Theor. Chem. Acc. 128, 69 (2011)
         Mg : Obtained from the Peterson Research Group Website (tyr0.chem.wsu.edu/~kipeters) Feb. 2017
              B. P. Prascher, D. E. Woon, K. A. Peterson, T. H. Dunning, Jr., A. K. Wilson, Theor. Chem. Acc. 128, 69 (2011)
      Al-Ar : Obtained from the ccRepo (grant-hill.group.shef.ac.uk/ccrepo) Feb. 2017
              D. E. Woon, T. H. Dunning, Jr., J. Chem. Phys. 98, 1358 (1993)
      Sc-Zn : Obtained from the ccRepo (grant-hill.group.shef.ac.uk/ccrepo) Feb. 2017
              N. B. Balabanov, K. A. Peterson, J. Chem. Phys. 123, 064107 (2005)
              N. B. Balabanov, K. A. Peterson, J. Chem. Phys. 125, 074110 (2006)
      Ga-Kr : Obtained from the ccRepo (grant-hill.group.shef.ac.uk/ccrepo) Feb. 2017
              A. K. Wilson, D. E. Woon, K. A. Peterson, T. H. Dunning, Jr., J. Chem. Phys. 110, 7667 (1999)
     Ag, Au : Obtained from the Peterson Research Group Website (tyr0.chem.wsu.edu/~kipeters) Feb. 2017
              K. A. Peterson, C. Puzzarini, Theor. Chem. Acc. 114, 283 (2005)

================================================================================
                                        WARNINGS
                       Please study these warnings very carefully!
================================================================================


WARNING: The frozen-core approximation for MP2-gradient calculations is turned on by default.

INFO   : the flag for use of LIBINT has been found!

----- Orbital basis set information -----
Your calculation utilizes the basis: aug-cc-pVTZ 
    H, B-Ne : Obtained from the ccRepo (grant-hill.group.shef.ac.uk/ccrepo) Feb. 2017
              R. A. Kendall, T. H. Dunning, Jr., R. J. Harrison, J. Chem. Phys. 96, 6796 (1992)
         He : Obtained from the ccRepo (grant-hill.group.shef.ac.uk/ccrepo) Feb. 2017
              D. E. Woon, T. H. Dunning, Jr., J. Chem. Phys. 100, 2975 (1994)
  Li-Be, Na : Obtained from the ccRepo (grant-hill.group.shef.ac.uk/ccrepo) Feb. 2017
              B. P. Prascher, D. E. Woon, K. A. Peterson, T. H. Dunning, Jr., A. K. Wilson, Theor. Chem. Acc. 128, 69 (2011)
         Mg : Obtained from the Peterson Research Group Website (tyr0.chem.wsu.edu/~kipeters) Feb. 2017
              B. P. Prascher, D. E. Woon, K. A. Peterson, T. H. Dunning, Jr., A. K. Wilson, Theor. Chem. Acc. 128, 69 (2011)
      Al-Ar : Obtained from the ccRepo (grant-hill.group.shef.ac.uk/ccrepo) Feb. 2017
              D. E. Woon, T. H. Dunning, Jr., J. Chem. Phys. 98, 1358 (1993)
      Sc-Zn : Obtained from the ccRepo (grant-hill.group.shef.ac.uk/ccrepo) Feb. 2017
              N. B. Balabanov, K. A. Peterson, J. Chem. Phys. 123, 064107 (2005)
              N. B. Balabanov, K. A. Peterson, J. Chem. Phys. 125, 074110 (2006)
      Ga-Kr : Obtained from the ccRepo (grant-hill.group.shef.ac.uk/ccrepo) Feb. 2017
              A. K. Wilson, D. E. Woon, K. A. Peterson, T. H. Dunning, Jr., J. Chem. Phys. 110, 7667 (1999)
     Ag, Au : Obtained from the Peterson Research Group Website (tyr0.chem.wsu.edu/~kipeters) Feb. 2017
              K. A. Peterson, C. Puzzarini, Theor. Chem. Acc. 114, 283 (2005)

================================================================================
                                        WARNINGS
                       Please study these warnings very carefully!
================================================================================


WARNING: The frozen-core approximation for MP2-gradient calculations is turned on by default.

INFO   : the flag for use of LIBINT has been found!

----- Orbital basis set information -----
Your calculation utilizes the basis: aug-cc-pVTZ 
    H, B-Ne : Obtained from the ccRepo (grant-hill.group.shef.ac.uk/ccrepo) Feb. 2017
              R. A. Kendall, T. H. Dunning, Jr., R. J. Harrison, J. Chem. Phys. 96, 6796 (1992)
         He : Obtained from the ccRepo (grant-hill.group.shef.ac.uk/ccrepo) Feb. 2017
              D. E. Woon, T. H. Dunning, Jr., J. Chem. Phys. 100, 2975 (1994)
  Li-Be, Na : Obtained from the ccRepo (grant-hill.group.shef.ac.uk/ccrepo) Feb. 2017
              B. P. Prascher, D. E. Woon, K. A. Peterson, T. H. Dunning, Jr., A. K. Wilson, Theor. Chem. Acc. 128, 69 (2011)
         Mg : Obtained from the Peterson Research Group Website (tyr0.chem.wsu.edu/~kipeters) Feb. 2017
              B. P. Prascher, D. E. Woon, K. A. Peterson, T. H. Dunning, Jr., A. K. Wilson, Theor. Chem. Acc. 128, 69 (2011)
      Al-Ar : Obtained from the ccRepo (grant-hill.group.shef.ac.uk/ccrepo) Feb. 2017
              D. E. Woon, T. H. Dunning, Jr., J. Chem. Phys. 98, 1358 (1993)
      Sc-Zn : Obtained from the ccRepo (grant-hill.group.shef.ac.uk/ccrepo) Feb. 2017
              N. B. Balabanov, K. A. Peterson, J. Chem. Phys. 123, 064107 (2005)
              N. B. Balabanov, K. A. Peterson, J. Chem. Phys. 125, 074110 (2006)
      Ga-Kr : Obtained from the ccRepo (grant-hill.group.shef.ac.uk/ccrepo) Feb. 2017
              A. K. Wilson, D. E. Woon, K. A. Peterson, T. H. Dunning, Jr., J. Chem. Phys. 110, 7667 (1999)
     Ag, Au : Obtained from the Peterson Research Group Website (tyr0.chem.wsu.edu/~kipeters) Feb. 2017
              K. A. Peterson, C. Puzzarini, Theor. Chem. Acc. 114, 283 (2005)

================================================================================
                                        WARNINGS
                       Please study these warnings very carefully!
================================================================================


WARNING: The frozen-core approximation for MP2-gradient calculations is turned on by default.

INFO   : the flag for use of LIBINT has been found!

----- Orbital basis set information -----
Your calculation utilizes the basis: aug-cc-pVTZ 
    H, B-Ne : Obtained from the ccRepo (grant-hill.group.shef.ac.uk/ccrepo) Feb. 2017
              R. A. Kendall, T. H. Dunning, Jr., R. J. Harrison, J. Chem. Phys. 96, 6796 (1992)
         He : Obtained from the ccRepo (grant-hill.group.shef.ac.uk/ccrepo) Feb. 2017
              D. E. Woon, T. H. Dunning, Jr., J. Chem. Phys. 100, 2975 (1994)
  Li-Be, Na : Obtained from the ccRepo (grant-hill.group.shef.ac.uk/ccrepo) Feb. 2017
              B. P. Prascher, D. E. Woon, K. A. Peterson, T. H. Dunning, Jr., A. K. Wilson, Theor. Chem. Acc. 128, 69 (2011)
         Mg : Obtained from the Peterson Research Group Website (tyr0.chem.wsu.edu/~kipeters) Feb. 2017
              B. P. Prascher, D. E. Woon, K. A. Peterson, T. H. Dunning, Jr., A. K. Wilson, Theor. Chem. Acc. 128, 69 (2011)
      Al-Ar : Obtained from the ccRepo (grant-hill.group.shef.ac.uk/ccrepo) Feb. 2017
              D. E. Woon, T. H. Dunning, Jr., J. Chem. Phys. 98, 1358 (1993)
      Sc-Zn : Obtained from the ccRepo (grant-hill.group.shef.ac.uk/ccrepo) Feb. 2017
              N. B. Balabanov, K. A. Peterson, J. Chem. Phys. 123, 064107 (2005)
              N. B. Balabanov, K. A. Peterson, J. Chem. Phys. 125, 074110 (2006)
      Ga-Kr : Obtained from the ccRepo (grant-hill.group.shef.ac.uk/ccrepo) Feb. 2017
              A. K. Wilson, D. E. Woon, K. A. Peterson, T. H. Dunning, Jr., J. Chem. Phys. 110, 7667 (1999)
     Ag, Au : Obtained from the Peterson Research Group Website (tyr0.chem.wsu.edu/~kipeters) Feb. 2017
              K. A. Peterson, C. Puzzarini, Theor. Chem. Acc. 114, 283 (2005)

================================================================================
                                        WARNINGS
                       Please study these warnings very carefully!
================================================================================


WARNING: The frozen-core approximation for MP2-gradient calculations is turned on by default.

INFO   : the flag for use of LIBINT has been found!

----- Orbital basis set information -----
Your calculation utilizes the basis: aug-cc-pVTZ 
    H, B-Ne : Obtained from the ccRepo (grant-hill.group.shef.ac.uk/ccrepo) Feb. 2017
              R. A. Kendall, T. H. Dunning, Jr., R. J. Harrison, J. Chem. Phys. 96, 6796 (1992)
         He : Obtained from the ccRepo (grant-hill.group.shef.ac.uk/ccrepo) Feb. 2017
              D. E. Woon, T. H. Dunning, Jr., J. Chem. Phys. 100, 2975 (1994)
  Li-Be, Na : Obtained from the ccRepo (grant-hill.group.shef.ac.uk/ccrepo) Feb. 2017
              B. P. Prascher, D. E. Woon, K. A. Peterson, T. H. Dunning, Jr., A. K. Wilson, Theor. Chem. Acc. 128, 69 (2011)
         Mg : Obtained from the Peterson Research Group Website (tyr0.chem.wsu.edu/~kipeters) Feb. 2017
              B. P. Prascher, D. E. Woon, K. A. Peterson, T. H. Dunning, Jr., A. K. Wilson, Theor. Chem. Acc. 128, 69 (2011)
      Al-Ar : Obtained from the ccRepo (grant-hill.group.shef.ac.uk/ccrepo) Feb. 2017
              D. E. Woon, T. H. Dunning, Jr., J. Chem. Phys. 98, 1358 (1993)
      Sc-Zn : Obtained from the ccRepo (grant-hill.group.shef.ac.uk/ccrepo) Feb. 2017
              N. B. Balabanov, K. A. Peterson, J. Chem. Phys. 123, 064107 (2005)
              N. B. Balabanov, K. A. Peterson, J. Chem. Phys. 125, 074110 (2006)
      Ga-Kr : Obtained from the ccRepo (grant-hill.group.shef.ac.uk/ccrepo) Feb. 2017
              A. K. Wilson, D. E. Woon, K. A. Peterson, T. H. Dunning, Jr., J. Chem. Phys. 110, 7667 (1999)
     Ag, Au : Obtained from the Peterson Research Group Website (tyr0.chem.wsu.edu/~kipeters) Feb. 2017
              K. A. Peterson, C. Puzzarini, Theor. Chem. Acc. 114, 283 (2005)

================================================================================
                                        WARNINGS
                       Please study these warnings very carefully!
================================================================================


WARNING: The frozen-core approximation for MP2-gradient calculations is turned on by default.

INFO   : the flag for use of LIBINT has been found!

----- Orbital basis set information -----
Your calculation utilizes the basis: aug-cc-pVTZ 
    H, B-Ne : Obtained from the ccRepo (grant-hill.group.shef.ac.uk/ccrepo) Feb. 2017
              R. A. Kendall, T. H. Dunning, Jr., R. J. Harrison, J. Chem. Phys. 96, 6796 (1992)
         He : Obtained from the ccRepo (grant-hill.group.shef.ac.uk/ccrepo) Feb. 2017
              D. E. Woon, T. H. Dunning, Jr., J. Chem. Phys. 100, 2975 (1994)
  Li-Be, Na : Obtained from the ccRepo (grant-hill.group.shef.ac.uk/ccrepo) Feb. 2017
              B. P. Prascher, D. E. Woon, K. A. Peterson, T. H. Dunning, Jr., A. K. Wilson, Theor. Chem. Acc. 128, 69 (2011)
         Mg : Obtained from the Peterson Research Group Website (tyr0.chem.wsu.edu/~kipeters) Feb. 2017
              B. P. Prascher, D. E. Woon, K. A. Peterson, T. H. Dunning, Jr., A. K. Wilson, Theor. Chem. Acc. 128, 69 (2011)
      Al-Ar : Obtained from the ccRepo (grant-hill.group.shef.ac.uk/ccrepo) Feb. 2017
              D. E. Woon, T. H. Dunning, Jr., J. Chem. Phys. 98, 1358 (1993)
      Sc-Zn : Obtained from the ccRepo (grant-hill.group.shef.ac.uk/ccrepo) Feb. 2017
              N. B. Balabanov, K. A. Peterson, J. Chem. Phys. 123, 064107 (2005)
              N. B. Balabanov, K. A. Peterson, J. Chem. Phys. 125, 074110 (2006)
      Ga-Kr : Obtained from the ccRepo (grant-hill.group.shef.ac.uk/ccrepo) Feb. 2017
              A. K. Wilson, D. E. Woon, K. A. Peterson, T. H. Dunning, Jr., J. Chem. Phys. 110, 7667 (1999)
     Ag, Au : Obtained from the Peterson Research Group Website (tyr0.chem.wsu.edu/~kipeters) Feb. 2017
              K. A. Peterson, C. Puzzarini, Theor. Chem. Acc. 114, 283 (2005)

================================================================================
                                        WARNINGS
                       Please study these warnings very carefully!
================================================================================


WARNING: The frozen-core approximation for MP2-gradient calculations is turned on by default.

INFO   : the flag for use of LIBINT has been found!

----- Orbital basis set information -----
Your calculation utilizes the basis: aug-cc-pVTZ 
    H, B-Ne : Obtained from the ccRepo (grant-hill.group.shef.ac.uk/ccrepo) Feb. 2017
              R. A. Kendall, T. H. Dunning, Jr., R. J. Harrison, J. Chem. Phys. 96, 6796 (1992)
         He : Obtained from the ccRepo (grant-hill.group.shef.ac.uk/ccrepo) Feb. 2017
              D. E. Woon, T. H. Dunning, Jr., J. Chem. Phys. 100, 2975 (1994)
  Li-Be, Na : Obtained from the ccRepo (grant-hill.group.shef.ac.uk/ccrepo) Feb. 2017
              B. P. Prascher, D. E. Woon, K. A. Peterson, T. H. Dunning, Jr., A. K. Wilson, Theor. Chem. Acc. 128, 69 (2011)
         Mg : Obtained from the Peterson Research Group Website (tyr0.chem.wsu.edu/~kipeters) Feb. 2017
              B. P. Prascher, D. E. Woon, K. A. Peterson, T. H. Dunning, Jr., A. K. Wilson, Theor. Chem. Acc. 128, 69 (2011)
      Al-Ar : Obtained from the ccRepo (grant-hill.group.shef.ac.uk/ccrepo) Feb. 2017
              D. E. Woon, T. H. Dunning, Jr., J. Chem. Phys. 98, 1358 (1993)
      Sc-Zn : Obtained from the ccRepo (grant-hill.group.shef.ac.uk/ccrepo) Feb. 2017
              N. B. Balabanov, K. A. Peterson, J. Chem. Phys. 123, 064107 (2005)
              N. B. Balabanov, K. A. Peterson, J. Chem. Phys. 125, 074110 (2006)
      Ga-Kr : Obtained from the ccRepo (grant-hill.group.shef.ac.uk/ccrepo) Feb. 2017
              A. K. Wilson, D. E. Woon, K. A. Peterson, T. H. Dunning, Jr., J. Chem. Phys. 110, 7667 (1999)
     Ag, Au : Obtained from the Peterson Research Group Website (tyr0.chem.wsu.edu/~kipeters) Feb. 2017
              K. A. Peterson, C. Puzzarini, Theor. Chem. Acc. 114, 283 (2005)

================================================================================
                                        WARNINGS
                       Please study these warnings very carefully!
================================================================================


WARNING: The frozen-core approximation for MP2-gradient calculations is turned on by default.

INFO   : the flag for use of LIBINT has been found!

----- Orbital basis set information -----
Your calculation utilizes the basis: aug-cc-pVTZ 
    H, B-Ne : Obtained from the ccRepo (grant-hill.group.shef.ac.uk/ccrepo) Feb. 2017
              R. A. Kendall, T. H. Dunning, Jr., R. J. Harrison, J. Chem. Phys. 96, 6796 (1992)
         He : Obtained from the ccRepo (grant-hill.group.shef.ac.uk/ccrepo) Feb. 2017
              D. E. Woon, T. H. Dunning, Jr., J. Chem. Phys. 100, 2975 (1994)
  Li-Be, Na : Obtained from the ccRepo (grant-hill.group.shef.ac.uk/ccrepo) Feb. 2017
              B. P. Prascher, D. E. Woon, K. A. Peterson, T. H. Dunning, Jr., A. K. Wilson, Theor. Chem. Acc. 128, 69 (2011)
         Mg : Obtained from the Peterson Research Group Website (tyr0.chem.wsu.edu/~kipeters) Feb. 2017
              B. P. Prascher, D. E. Woon, K. A. Peterson, T. H. Dunning, Jr., A. K. Wilson, Theor. Chem. Acc. 128, 69 (2011)
      Al-Ar : Obtained from the ccRepo (grant-hill.group.shef.ac.uk/ccrepo) Feb. 2017
              D. E. Woon, T. H. Dunning, Jr., J. Chem. Phys. 98, 1358 (1993)
      Sc-Zn : Obtained from the ccRepo (grant-hill.group.shef.ac.uk/ccrepo) Feb. 2017
              N. B. Balabanov, K. A. Peterson, J. Chem. Phys. 123, 064107 (2005)
              N. B. Balabanov, K. A. Peterson, J. Chem. Phys. 125, 074110 (2006)
      Ga-Kr : Obtained from the ccRepo (grant-hill.group.shef.ac.uk/ccrepo) Feb. 2017
              A. K. Wilson, D. E. Woon, K. A. Peterson, T. H. Dunning, Jr., J. Chem. Phys. 110, 7667 (1999)
     Ag, Au : Obtained from the Peterson Research Group Website (tyr0.chem.wsu.edu/~kipeters) Feb. 2017
              K. A. Peterson, C. Puzzarini, Theor. Chem. Acc. 114, 283 (2005)

================================================================================
                                        WARNINGS
                       Please study these warnings very carefully!
================================================================================


WARNING: The frozen-core approximation for MP2-gradient calculations is turned on by default.

INFO   : the flag for use of LIBINT has been found!

----- Orbital basis set information -----
Your calculation utilizes the basis: aug-cc-pVTZ 
    H, B-Ne : Obtained from the ccRepo (grant-hill.group.shef.ac.uk/ccrepo) Feb. 2017
              R. A. Kendall, T. H. Dunning, Jr., R. J. Harrison, J. Chem. Phys. 96, 6796 (1992)
         He : Obtained from the ccRepo (grant-hill.group.shef.ac.uk/ccrepo) Feb. 2017
              D. E. Woon, T. H. Dunning, Jr., J. Chem. Phys. 100, 2975 (1994)
  Li-Be, Na : Obtained from the ccRepo (grant-hill.group.shef.ac.uk/ccrepo) Feb. 2017
              B. P. Prascher, D. E. Woon, K. A. Peterson, T. H. Dunning, Jr., A. K. Wilson, Theor. Chem. Acc. 128, 69 (2011)
         Mg : Obtained from the Peterson Research Group Website (tyr0.chem.wsu.edu/~kipeters) Feb. 2017
              B. P. Prascher, D. E. Woon, K. A. Peterson, T. H. Dunning, Jr., A. K. Wilson, Theor. Chem. Acc. 128, 69 (2011)
      Al-Ar : Obtained from the ccRepo (grant-hill.group.shef.ac.uk/ccrepo) Feb. 2017
              D. E. Woon, T. H. Dunning, Jr., J. Chem. Phys. 98, 1358 (1993)
      Sc-Zn : Obtained from the ccRepo (grant-hill.group.shef.ac.uk/ccrepo) Feb. 2017
              N. B. Balabanov, K. A. Peterson, J. Chem. Phys. 123, 064107 (2005)
              N. B. Balabanov, K. A. Peterson, J. Chem. Phys. 125, 074110 (2006)
      Ga-Kr : Obtained from the ccRepo (grant-hill.group.shef.ac.uk/ccrepo) Feb. 2017
              A. K. Wilson, D. E. Woon, K. A. Peterson, T. H. Dunning, Jr., J. Chem. Phys. 110, 7667 (1999)
     Ag, Au : Obtained from the Peterson Research Group Website (tyr0.chem.wsu.edu/~kipeters) Feb. 2017
              K. A. Peterson, C. Puzzarini, Theor. Chem. Acc. 114, 283 (2005)

================================================================================
                                        WARNINGS
                       Please study these warnings very carefully!
================================================================================


WARNING: The frozen-core approximation for MP2-gradient calculations is turned on by default.

INFO   : the flag for use of LIBINT has been found!

----- Orbital basis set information -----
Your calculation utilizes the basis: aug-cc-pVTZ 
    H, B-Ne : Obtained from the ccRepo (grant-hill.group.shef.ac.uk/ccrepo) Feb. 2017
              R. A. Kendall, T. H. Dunning, Jr., R. J. Harrison, J. Chem. Phys. 96, 6796 (1992)
         He : Obtained from the ccRepo (grant-hill.group.shef.ac.uk/ccrepo) Feb. 2017
              D. E. Woon, T. H. Dunning, Jr., J. Chem. Phys. 100, 2975 (1994)
  Li-Be, Na : Obtained from the ccRepo (grant-hill.group.shef.ac.uk/ccrepo) Feb. 2017
              B. P. Prascher, D. E. Woon, K. A. Peterson, T. H. Dunning, Jr., A. K. Wilson, Theor. Chem. Acc. 128, 69 (2011)
         Mg : Obtained from the Peterson Research Group Website (tyr0.chem.wsu.edu/~kipeters) Feb. 2017
              B. P. Prascher, D. E. Woon, K. A. Peterson, T. H. Dunning, Jr., A. K. Wilson, Theor. Chem. Acc. 128, 69 (2011)
      Al-Ar : Obtained from the ccRepo (grant-hill.group.shef.ac.uk/ccrepo) Feb. 2017
              D. E. Woon, T. H. Dunning, Jr., J. Chem. Phys. 98, 1358 (1993)
      Sc-Zn : Obtained from the ccRepo (grant-hill.group.shef.ac.uk/ccrepo) Feb. 2017
              N. B. Balabanov, K. A. Peterson, J. Chem. Phys. 123, 064107 (2005)
              N. B. Balabanov, K. A. Peterson, J. Chem. Phys. 125, 074110 (2006)
      Ga-Kr : Obtained from the ccRepo (grant-hill.group.shef.ac.uk/ccrepo) Feb. 2017
              A. K. Wilson, D. E. Woon, K. A. Peterson, T. H. Dunning, Jr., J. Chem. Phys. 110, 7667 (1999)
     Ag, Au : Obtained from the Peterson Research Group Website (tyr0.chem.wsu.edu/~kipeters) Feb. 2017
              K. A. Peterson, C. Puzzarini, Theor. Chem. Acc. 114, 283 (2005)

================================================================================
                                        WARNINGS
                       Please study these warnings very carefully!
================================================================================


WARNING: The frozen-core approximation for MP2-gradient calculations is turned on by default.

INFO   : the flag for use of LIBINT has been found!

================================================================================
                                       INPUT FILE
================================================================================
NAME = 4h2o.temelso.etal.dset.1h2o-orca.engrad-mp2.augccpvtz.inp
|  1> # 4h2o.temelso.etal.dset.1h2o-orca.engrad-mp2.augccpvtz
|  2> ! MP2 aug-cc-pVTZ EnGrad TightSCF FrozenCore
|  3> 
|  4> %pal
|  5>     nprocs 12
|  6> end
|  7> 
|  8> %maxcore 8000
|  9> 
| 10> %scf
| 11>     ConvForced true
| 12> end
| 13> 
| 14> *xyz 0 1
| 15> O   0.032526650  -0.041897504   0.040241520
| 16> H  -0.385673350  -0.256497504  -0.802558480
| 17> H  -0.130673350   0.921602496   0.163741520
| 18> *
| 19> 
| 20> 
| 21> $new_job
| 22> 
| 23> # 4h2o.temelso.etal.dset.1h2o-orca.engrad-mp2.augccpvtz
| 24> ! MP2 aug-cc-pVTZ EnGrad TightSCF FrozenCore
| 25> 
| 26> %pal
| 27>     nprocs 12
| 28> end
| 29> 
| 30> %maxcore 8000
| 31> 
| 32> %scf
| 33>     ConvForced true
| 34> end
| 35> 
| 36> *xyz 0 1
| 37> O   0.041718478   0.043408029  -0.028448231
| 38> H  -0.915881522  -0.095391971  -0.213148231
| 39> H   0.253618478  -0.593691971   0.664751769
| 40> *
| 41> 
| 42> 
| 43> $new_job
| 44> 
| 45> # 4h2o.temelso.etal.dset.1h2o-orca.engrad-mp2.augccpvtz
| 46> ! MP2 aug-cc-pVTZ EnGrad TightSCF FrozenCore
| 47> 
| 48> %pal
| 49>     nprocs 12
| 50> end
| 51> 
| 52> %maxcore 8000
| 53> 
| 54> %scf
| 55>     ConvForced true
| 56> end
| 57> 
| 58> *xyz 0 1
| 59> O  -0.044761908   0.031111232   0.038238675
| 60> H   0.113438092  -0.936788768  -0.053861325
| 61> H   0.597138092   0.442911232  -0.553161325
| 62> *
| 63> 
| 64> 
| 65> $new_job
| 66> 
| 67> # 4h2o.temelso.etal.dset.1h2o-orca.engrad-mp2.augccpvtz
| 68> ! MP2 aug-cc-pVTZ EnGrad TightSCF FrozenCore
| 69> 
| 70> %pal
| 71>     nprocs 12
| 72> end
| 73> 
| 74> %maxcore 8000
| 75> 
| 76> %scf
| 77>     ConvForced true
| 78> end
| 79> 
| 80> *xyz 0 1
| 81> O  -0.029477627  -0.032582596  -0.050043153
| 82> H   0.932922373   0.110417404   0.103656847
| 83> H  -0.464977627   0.406817404   0.690756847
| 84> *
| 85> 
| 86> 
| 87> $new_job
| 88> 
| 89> # 4h2o.temelso.etal.dset.1h2o-orca.engrad-mp2.augccpvtz
| 90> ! MP2 aug-cc-pVTZ EnGrad TightSCF FrozenCore
| 91> 
| 92> %pal
| 93>     nprocs 12
| 94> end
| 95> 
| 96> %maxcore 8000
| 97> 
| 98> %scf
| 99>     ConvForced true
|100> end
|101> 
|102> *xyz 0 1
|103> O   0.039407934   0.045533954  -0.027832832
|104> H   0.296507934  -0.621166046   0.620667168
|105> H  -0.922092066  -0.101666046  -0.178832832
|106> *
|107> 
|108> 
|109> $new_job
|110> 
|111> # 4h2o.temelso.etal.dset.1h2o-orca.engrad-mp2.augccpvtz
|112> ! MP2 aug-cc-pVTZ EnGrad TightSCF FrozenCore
|113> 
|114> %pal
|115>     nprocs 12
|116> end
|117> 
|118> %maxcore 8000
|119> 
|120> %scf
|121>     ConvForced true
|122> end
|123> 
|124> *xyz 0 1
|125> O  -0.046619295   0.025393613   0.039950604
|126> H   0.629680705   0.515993613  -0.442449396
|127> H   0.110380705  -0.919106387  -0.191749396
|128> *
|129> 
|130> 
|131> $new_job
|132> 
|133> # 4h2o.temelso.etal.dset.1h2o-orca.engrad-mp2.augccpvtz
|134> ! MP2 aug-cc-pVTZ EnGrad TightSCF FrozenCore
|135> 
|136> %pal
|137>     nprocs 12
|138> end
|139> 
|140> %maxcore 8000
|141> 
|142> %scf
|143>     ConvForced true
|144> end
|145> 
|146> *xyz 0 1
|147> O  -0.039435906  -0.045505981   0.027844021
|148> H   0.922064094   0.101694019   0.179244021
|149> H  -0.296035906   0.620694019  -0.621255979
|150> *
|151> 
|152> 
|153> $new_job
|154> 
|155> # 4h2o.temelso.etal.dset.1h2o-orca.engrad-mp2.augccpvtz
|156> ! MP2 aug-cc-pVTZ EnGrad TightSCF FrozenCore
|157> 
|158> %pal
|159>     nprocs 12
|160> end
|161> 
|162> %maxcore 8000
|163> 
|164> %scf
|165>     ConvForced true
|166> end
|167> 
|168> *xyz 0 1
|169> O   0.046596916  -0.025399208  -0.039972982
|170> H  -0.110303084   0.919100792   0.191427018
|171> H  -0.629403084  -0.515899208   0.443127018
|172> *
|173> 
|174> 
|175> $new_job
|176> 
|177> # 4h2o.temelso.etal.dset.1h2o-orca.engrad-mp2.augccpvtz
|178> ! MP2 aug-cc-pVTZ EnGrad TightSCF FrozenCore
|179> 
|180> %pal
|181>     nprocs 12
|182> end
|183> 
|184> %maxcore 8000
|185> 
|186> %scf
|187>     ConvForced true
|188> end
|189> 
|190> *xyz 0 1
|191> O  -0.036655420  -0.048717247   0.024565621
|192> H  -0.329255420   0.694382753  -0.538834379
|193> H   0.911144580   0.078982753   0.148865621
|194> *
|195> 
|196> 
|197> $new_job
|198> 
|199> # 4h2o.temelso.etal.dset.1h2o-orca.engrad-mp2.augccpvtz
|200> ! MP2 aug-cc-pVTZ EnGrad TightSCF FrozenCore
|201> 
|202> %pal
|203>     nprocs 12
|204> end
|205> 
|206> %maxcore 8000
|207> 
|208> %scf
|209>     ConvForced true
|210> end
|211> 
|212> *xyz 0 1
|213> O  -0.036465206   0.046054246  -0.031681875
|214> H   0.262634794   0.068454246   0.886818125
|215> H   0.316234794  -0.799545754  -0.383881875
|216> *
|217> 
|218> 
|219> $new_job
|220> 
|221> # 4h2o.temelso.etal.dset.1h2o-orca.engrad-mp2.augccpvtz
|222> ! MP2 aug-cc-pVTZ EnGrad TightSCF FrozenCore
|223> 
|224> %pal
|225>     nprocs 12
|226> end
|227> 
|228> %maxcore 8000
|229> 
|230> %scf
|231>     ConvForced true
|232> end
|233> 
|234> *xyz 0 1
|235> O   0.048258495  -0.041623371  -0.015776600
|236> H  -0.693341505  -0.188323371   0.615323400
|237> H  -0.072741505   0.849076629  -0.364876600
|238> *
|239> 
|240> 
|241> $new_job
|242> 
|243> # 4h2o.temelso.etal.dset.1h2o-orca.engrad-mp2.augccpvtz
|244> ! MP2 aug-cc-pVTZ EnGrad TightSCF FrozenCore
|245> 
|246> %pal
|247>     nprocs 12
|248> end
|249> 
|250> %maxcore 8000
|251> 
|252> %scf
|253>     ConvForced true
|254> end
|255> 
|256> *xyz 0 1
|257> O  -0.049701886  -0.045382901   0.013135978
|258> H  -0.015201886   0.637217099  -0.674564022
|259> H   0.804198114   0.083217099   0.466035978
|260> *
|261> 
|262>                          ****END OF INPUT****
================================================================================


                 $$$$$$$$$$$$$$$$$$$$$$$$$$$$$$$$$$$$$$$$$$$$$$ 
                 $ THERE ARE 12 JOBS TO BE PROCESSED THIS RUN $
                 $$$$$$$$$$$$$$$$$$$$$$$$$$$$$$$$$$$$$$$$$$$$$$ 




                 $$$$$$$$$$$$$$$$  JOB NUMBER  1 $$$$$$$$$$$$$$


                     *******************************
                     * Energy+Gradient Calculation *
                     *******************************

---------------------------------
CARTESIAN COORDINATES (ANGSTROEM)
---------------------------------
  O      0.032527   -0.041898    0.040242
  H     -0.385673   -0.256498   -0.802558
  H     -0.130673    0.921602    0.163742

----------------------------
CARTESIAN COORDINATES (A.U.)
----------------------------
  NO LB      ZA    FRAG     MASS         X           Y           Z
   0 O     8.0000    0    15.999    0.061466   -0.079175    0.076045
   1 H     1.0000    0     1.008   -0.728817   -0.484710   -1.516616
   2 H     1.0000    0     1.008   -0.246937    1.741576    0.309427

--------------------------------
INTERNAL COORDINATES (ANGSTROEM)
--------------------------------
 O      0   0   0     0.000000000000     0.00000000     0.00000000
 H      1   0   0     0.965016186393     0.00000000     0.00000000
 H      1   2   0     0.984996822330   104.78701950     0.00000000

---------------------------
INTERNAL COORDINATES (A.U.)
---------------------------
 O      0   0   0     0.000000000000     0.00000000     0.00000000
 H      1   0   0     1.823616307083     0.00000000     0.00000000
 H      1   2   0     1.861374236986   104.78701950     0.00000000

---------------------
BASIS SET INFORMATION
---------------------
There are 2 groups of distinct atoms

 Group   1 Type O   : 19s6p3d2f contracted to 5s4p3d2f pattern {88111/3111/111/11}
 Group   2 Type H   : 6s3p2d contracted to 4s3p2d pattern {3111/111/11}

Atom   0O    basis set group =>   1
Atom   1H    basis set group =>   2
Atom   2H    basis set group =>   2


           ************************************************************
           *        Program running with 12 parallel MPI-processes    *
           *              working on a common directory               *
           ************************************************************
------------------------------------------------------------------------------
                           ORCA GTO INTEGRAL CALCULATION
------------------------------------------------------------------------------

                         BASIS SET STATISTICS AND STARTUP INFO

 # of primitive gaussian shells          ...   52
 # of primitive gaussian functions       ...  116
 # of contracted shells                  ...   32
 # of contracted basis functions         ...   92
 Highest angular momentum                ...    3
 Maximum contraction depth               ...    8
 Integral package used                   ... LIBINT
 Integral threshhold            Thresh   ...  2.500e-11
 Primitive cut-off              TCut     ...  2.500e-12


------------------------------ INTEGRAL EVALUATION ----------------------------


 * One electron integrals 
 Pre-screening matrix                    ... done
 Shell pair data                         ... done (   0.000 sec)



           ************************************************************
           *        Program running with 12 parallel MPI-processes    *
           *              working on a common directory               *
           ************************************************************
-------------------------------------------------------------------------------
                                 ORCA SCF
-------------------------------------------------------------------------------

------------
SCF SETTINGS
------------
Hamiltonian:
 Ab initio Hamiltonian  Method          .... Hartree-Fock(GTOs)


General Settings:
 Integral files         IntName         .... 4h2o.temelso.etal.dset.1h2o-orca.engrad-mp2.augccpvtz
 Hartree-Fock type      HFTyp           .... RHF
 Total Charge           Charge          ....    0
 Multiplicity           Mult            ....    1
 Number of Electrons    NEL             ....   10
 Basis Dimension        Dim             ....   92
 Nuclear Repulsion      ENuc            ....      9.0273218028 Eh

Convergence Acceleration:
 DIIS                   CNVDIIS         .... on
   Start iteration      DIISMaxIt       ....    12
   Startup error        DIISStart       ....  0.200000
   # of expansion vecs  DIISMaxEq       ....     5
   Bias factor          DIISBfac        ....   1.050
   Max. coefficient     DIISMaxC        ....  10.000
 Newton-Raphson         CNVNR           .... off
 SOSCF                  CNVSOSCF        .... on
   Start iteration      SOSCFMaxIt      ....   150
   Startup grad/error   SOSCFStart      ....  0.003300
 Level Shifting         CNVShift        .... on
   Level shift para.    LevelShift      ....    0.2500
   Turn off err/grad.   ShiftErr        ....    0.0010
 Zerner damping         CNVZerner       .... off
 Static damping         CNVDamp         .... on
   Fraction old density DampFac         ....    0.7000
   Max. Damping (<1)    DampMax         ....    0.9800
   Min. Damping (>=0)   DampMin         ....    0.0000
   Turn off err/grad.   DampErr         ....    0.1000
 Fernandez-Rico         CNVRico         .... off

SCF Procedure:
 Maximum # iterations   MaxIter         ....   125
 SCF integral mode      SCFMode         .... Direct
   Integral package                     .... LIBINT
 Reset frequency        DirectResetFreq ....    20
 Integral Threshold     Thresh          ....  2.500e-11 Eh
 Primitive CutOff       TCut            ....  2.500e-12 Eh

Convergence Tolerance:
 Convergence Check Mode ConvCheckMode   .... Total+1el-Energy
 Convergence forced     ConvForced      .... 1
 Energy Change          TolE            ....  1.000e-08 Eh
 1-El. energy change                    ....  1.000e-05 Eh
 Orbital Gradient       TolG            ....  1.000e-05
 Orbital Rotation angle TolX            ....  1.000e-05
 DIIS Error             TolErr          ....  5.000e-07


Diagonalization of the overlap matrix:
Smallest eigenvalue                        ... 3.963e-04
Time for diagonalization                   ...    0.002 sec
Threshold for overlap eigenvalues          ... 1.000e-08
Number of eigenvalues below threshold      ... 0
Time for construction of square roots      ...    0.001 sec
Total time needed                          ...    0.003 sec

-------------------
DFT GRID GENERATION
-------------------

General Integration Accuracy     IntAcc      ...  4.340
Radial Grid Type                 RadialGrid  ... Gauss-Chebyshev
Angular Grid (max. acc.)         AngularGrid ... Lebedev-110
Angular grid pruning method      GridPruning ... 3 (G Style)
Weight generation scheme         WeightScheme... Becke
Basis function cutoff            BFCut       ...    1.0000e-11
Integration weight cutoff        WCut        ...    1.0000e-14
Grids for H and He will be reduced by one unit

# of grid points (after initial pruning)     ...   3304 (   0.0 sec)
# of grid points (after weights+screening)   ...   3284 (   0.0 sec)
nearest neighbour list constructed           ...    0.0 sec
Grid point re-assignment to atoms done       ...    0.0 sec
Grid point division into batches done        ...    0.0 sec
Reduced shell lists constructed in    0.0 sec

Total number of grid points                  ...     3284
Total number of batches                      ...       53
Average number of points per batch           ...       61
Average number of grid points per atom       ...     1095
Average number of shells per batch           ...    23.83 (74.48%)
Average number of basis functions per batch  ...    68.17 (74.09%)
Average number of large shells per batch     ...    22.33 (93.71%)
Average number of large basis fcns per batch ...    63.67 (93.40%)
Maximum spatial batch extension              ...  20.95, 15.18, 18.30 au
Average spatial batch extension              ...   0.96,  0.82,  0.89 au

Time for grid setup =    0.006 sec

------------------------------
INITIAL GUESS: MODEL POTENTIAL
------------------------------
Loading Hartree-Fock densities                     ... done
Calculating cut-offs                               ... done
Setting up the integral package                    ... done
Initializing the effective Hamiltonian             ... done
Starting the Coulomb interaction                   ... done (   0.0 sec)
Reading the grid                                   ... done
Mapping shells                                     ... done
Starting the XC term evaluation                    ... done (   0.0 sec)
Transforming the Hamiltonian                       ... done (   0.0 sec)
Diagonalizing the Hamiltonian                      ... done (   0.0 sec)
Back transforming the eigenvectors                 ... done (   0.0 sec)
Now organizing SCF variables                       ... done
                      ------------------
                      INITIAL GUESS DONE (   0.1 sec)
                      ------------------
--------------
SCF ITERATIONS
--------------
ITER       Energy         Delta-E        Max-DP      RMS-DP      [F,P]     Damp
               ***  Starting incremental Fock matrix formation  ***
  0    -75.9581764923   0.000000000000 0.02712309  0.00098660  0.3804231 0.7000
  1    -75.9983956370  -0.040219144663 0.01772828  0.00066512  0.2220387 0.7000
                               ***Turning on DIIS***
  2    -76.0191561695  -0.020760532530 0.01146576  0.00037009  0.1174409 0.7000
  3    -76.1737693880  -0.154613218492 0.02953302  0.00072290  0.0849954 0.0000
  4    -76.0344898848   0.139279503230 0.00479005  0.00012778  0.0127903 0.0000
                      *** Initiating the SOSCF procedure ***
                           *** Shutting down DIIS ***
                      *** Re-Reading the Fockian *** 
                      *** Removing any level shift *** 
ITER      Energy       Delta-E        Grad      Rot      Max-DP    RMS-DP
  5    -76.05842123  -0.0239313455  0.001300  0.001300  0.001508  0.000053
               *** Restarting incremental Fock matrix formation ***
  6    -76.05867802  -0.0002567935  0.000546  0.000817  0.001102  0.000028
  7    -76.05868377  -0.0000057505  0.000216  0.000537  0.000893  0.000022
  8    -76.05868514  -0.0000013650  0.000096  0.000053  0.000158  0.000004
  9    -76.05868519  -0.0000000516  0.000038  0.000028  0.000023  0.000001
 10    -76.05868520  -0.0000000111  0.000006  0.000008  0.000005  0.000000
                 **** Energy Check signals convergence ****
              ***Rediagonalizing the Fockian in SOSCF/NRSCF***

               *****************************************************
               *                     SUCCESS                       *
               *           SCF CONVERGED AFTER  11 CYCLES          *
               *****************************************************


----------------
TOTAL SCF ENERGY
----------------

Total Energy       :          -76.05868520 Eh           -2069.66204 eV

Components:
Nuclear Repulsion  :            9.02732180 Eh             245.64591 eV
Electronic Energy  :          -85.08600701 Eh           -2315.30796 eV
One Electron Energy:         -122.74554383 Eh           -3340.07605 eV
Two Electron Energy:           37.65953682 Eh            1024.76810 eV

Virial components:
Potential Energy   :         -151.94910655 Eh           -4134.74540 eV
Kinetic Energy     :           75.89042135 Eh            2065.08335 eV
Virial Ratio       :            2.00221719


---------------
SCF CONVERGENCE
---------------

  Last Energy change         ...   -3.6353e-10  Tolerance :   1.0000e-08
  Last MAX-Density change    ...    2.1699e-06  Tolerance :   1.0000e-07
  Last RMS-Density change    ...    1.0248e-07  Tolerance :   5.0000e-09
  Last Orbital Gradient      ...    1.3570e-06  Tolerance :   1.0000e-05
  Last Orbital Rotation      ...    3.1073e-06  Tolerance :   1.0000e-05

             **** THE GBW FILE WAS UPDATED (4h2o.temelso.etal.dset.1h2o-orca.engrad-mp2.augccpvtz.gbw) ****
             **** DENSITY FILE WAS UPDATED (4h2o.temelso.etal.dset.1h2o-orca.engrad-mp2.augccpvtz.scfp) ****
             **** ENERGY FILE WAS UPDATED (4h2o.temelso.etal.dset.1h2o-orca.engrad-mp2.augccpvtz.en.tmp) ****
             **** THE GBW FILE WAS UPDATED (4h2o.temelso.etal.dset.1h2o-orca.engrad-mp2.augccpvtz.gbw) ****
             **** DENSITY FILE WAS UPDATED (4h2o.temelso.etal.dset.1h2o-orca.engrad-mp2.augccpvtz.scfp) ****
----------------
ORBITAL ENERGIES
----------------

  NO   OCC          E(Eh)            E(eV) 
   0   2.0000     -20.570158      -559.7425 
   1   2.0000      -1.344507       -36.5859 
   2   2.0000      -0.708751       -19.2861 
   3   2.0000      -0.580973       -15.8091 
   4   2.0000      -0.508847       -13.8464 
   5   0.0000       0.029227         0.7953 
   6   0.0000       0.047596         1.2952 
   7   0.0000       0.135910         3.6983 
   8   0.0000       0.159345         4.3360 
   9   0.0000       0.174478         4.7478 
  10   0.0000       0.182946         4.9782 
  11   0.0000       0.226044         6.1510 
  12   0.0000       0.244210         6.6453 
  13   0.0000       0.265038         7.2121 
  14   0.0000       0.300056         8.1649 
  15   0.0000       0.310060         8.4372 
  16   0.0000       0.365181         9.9371 
  17   0.0000       0.434203        11.8153 
  18   0.0000       0.463588        12.6149 
  19   0.0000       0.598832        16.2951 
  20   0.0000       0.656423        17.8622 
  21   0.0000       0.707961        19.2646 
  22   0.0000       0.722411        19.6578 
  23   0.0000       0.732216        19.9246 
  24   0.0000       0.825280        22.4570 
  25   0.0000       0.844277        22.9740 
  26   0.0000       0.894487        24.3402 
  27   0.0000       0.909431        24.7469 
  28   0.0000       0.920217        25.0404 
  29   0.0000       0.920972        25.0609 
  30   0.0000       0.928962        25.2784 
  31   0.0000       0.961436        26.1620 
  32   0.0000       1.015044        27.6207 
  33   0.0000       1.039451        28.2849 
  34   0.0000       1.080710        29.4076 
  35   0.0000       1.105885        30.0927 
  36   0.0000       1.172069        31.8936 
  37   0.0000       1.175894        31.9977 
  38   0.0000       1.266197        34.4550 
  39   0.0000       1.505346        40.9625 
  40   0.0000       1.542279        41.9676 
  41   0.0000       1.576525        42.8994 
  42   0.0000       1.801820        49.0300 
  43   0.0000       1.811595        49.2960 
  44   0.0000       1.967002        53.5249 
  45   0.0000       2.103984        57.2523 
  46   0.0000       2.260260        61.5048 
  47   0.0000       2.312540        62.9274 
  48   0.0000       2.328105        63.3509 
  49   0.0000       2.414380        65.6986 
  50   0.0000       2.416458        65.7552 
  51   0.0000       2.441016        66.4234 
  52   0.0000       2.482740        67.5588 
  53   0.0000       2.689377        73.1817 
  54   0.0000       2.701714        73.5174 
  55   0.0000       2.753914        74.9378 
  56   0.0000       2.819099        76.7116 
  57   0.0000       2.875665        78.2508 
  58   0.0000       3.625069        98.6432 
  59   0.0000       3.727338       101.4260 
  60   0.0000       4.003026       108.9279 
  61   0.0000       4.067834       110.6914 
  62   0.0000       4.161263       113.2337 
  63   0.0000       4.223749       114.9341 
  64   0.0000       4.287378       116.6655 
  65   0.0000       4.370664       118.9318 
  66   0.0000       4.382292       119.2482 
  67   0.0000       4.391026       119.4859 
  68   0.0000       4.500389       122.4618 
  69   0.0000       4.700481       127.9066 
  70   0.0000       4.797698       130.5520 
  71   0.0000       5.105478       138.9271 
  72   0.0000       5.110774       139.0712 
  73   0.0000       5.233939       142.4227 
  74   0.0000       5.272631       143.4756 
  75   0.0000       5.476566       149.0249 
  76   0.0000       5.646576       153.6511 
  77   0.0000       6.149543       167.3376 
  78   0.0000       6.520646       177.4358 
  79   0.0000       6.704360       182.4349 
  80   0.0000       6.862963       186.7507 
  81   0.0000       7.113718       193.5741 
  82   0.0000       7.235383       196.8848 
  83   0.0000       7.276988       198.0169 
  84   0.0000       7.282210       198.1590 
  85   0.0000       7.319920       199.1852 
  86   0.0000       7.354279       200.1201 
  87   0.0000       7.493083       203.8972 
  88   0.0000       7.865206       214.0231 
  89   0.0000       7.891846       214.7480 
  90   0.0000       8.719246       237.2628 
  91   0.0000      15.301879       416.3853 

                    ********************************
                    * MULLIKEN POPULATION ANALYSIS *
                    ********************************

-----------------------
MULLIKEN ATOMIC CHARGES
-----------------------
   0 O :   -0.465066
   1 H :    0.224550
   2 H :    0.240516
Sum of atomic charges:   -0.0000000

--------------------------------
MULLIKEN REDUCED ORBITAL CHARGES
--------------------------------
  0 O s       :     3.873749  s :     3.873749
      pz      :     1.461784  p :     4.570928
      px      :     1.763289
      py      :     1.345855
      dz2     :     0.006838  d :     0.018994
      dxz     :     0.004097
      dyz     :     0.000189
      dx2y2   :     0.005599
      dxy     :     0.002270
      f0      :     0.000038  f :     0.001395
      f+1     :     0.000547
      f-1     :     0.000120
      f+2     :     0.000082
      f-2     :     0.000049
      f+3     :     0.000206
      f-3     :     0.000354
  1 H s       :     0.657959  s :     0.657959
      pz      :     0.024847  p :     0.098759
      px      :     0.041926
      py      :     0.031985
      dz2     :     0.006490  d :     0.018732
      dxz     :     0.004162
      dyz     :     0.003939
      dx2y2   :     0.002753
      dxy     :     0.001389
  2 H s       :     0.648580  s :     0.648580
      pz      :     0.033347  p :     0.093698
      px      :     0.041350
      py      :     0.019001
      dz2     :     0.001207  d :     0.017206
      dxz     :     0.000457
      dyz     :     0.006174
      dx2y2   :     0.001344
      dxy     :     0.008025


                     *******************************
                     * LOEWDIN POPULATION ANALYSIS *
                     *******************************

----------------------
LOEWDIN ATOMIC CHARGES
----------------------
   0 O :    0.992700
   1 H :   -0.517309
   2 H :   -0.475390

-------------------------------
LOEWDIN REDUCED ORBITAL CHARGES
-------------------------------
  0 O s       :     3.022860  s :     3.022860
      pz      :     1.279983  p :     3.899249
      px      :     1.400803
      py      :     1.218463
      dz2     :     0.023292  d :     0.070515
      dxz     :     0.012613
      dyz     :     0.008278
      dx2y2   :     0.022492
      dxy     :     0.003839
      f0      :     0.001218  f :     0.014677
      f+1     :     0.004443
      f-1     :     0.003011
      f+2     :     0.000791
      f-2     :     0.000800
      f+3     :     0.001294
      f-3     :     0.003119
  1 H s       :     0.591454  s :     0.591454
      pz      :     0.233206  p :     0.557555
      px      :     0.184037
      py      :     0.140312
      dz2     :     0.116991  d :     0.368300
      dxz     :     0.100233
      dyz     :     0.092530
      dx2y2   :     0.035234
      dxy     :     0.023312
  2 H s       :     0.583215  s :     0.583215
      pz      :     0.135773  p :     0.532031
      px      :     0.156014
      py      :     0.240244
      dz2     :     0.034258  d :     0.360145
      dxz     :     0.004048
      dyz     :     0.115427
      dx2y2   :     0.091142
      dxy     :     0.115270


                      *****************************
                      * MAYER POPULATION ANALYSIS *
                      *****************************

  NA   - Mulliken gross atomic population
  ZA   - Total nuclear charge
  QA   - Mulliken gross atomic charge
  VA   - Mayer's total valence
  BVA  - Mayer's bonded valence
  FA   - Mayer's free valence

  ATOM       NA         ZA         QA         VA         BVA        FA
  0 O      8.4651     8.0000    -0.4651     1.9791     1.9791    -0.0000
  1 H      0.7754     1.0000     0.2246     1.0317     1.0317    -0.0000
  2 H      0.7595     1.0000     0.2405     1.0192     1.0192    -0.0000

  Mayer bond orders larger than 0.100000
B(  0-O ,  1-H ) :   0.9958 B(  0-O ,  2-H ) :   0.9833 

-------
TIMINGS
-------

Total SCF time: 0 days 0 hours 0 min 1 sec 

Total time                  ....       1.477 sec
Sum of individual times     ....       1.319 sec  ( 89.3%)

Fock matrix formation       ....       1.227 sec  ( 83.0%)
Diagonalization             ....       0.007 sec  (  0.5%)
Density matrix formation    ....       0.001 sec  (  0.1%)
Population analysis         ....       0.001 sec  (  0.1%)
Initial guess               ....       0.071 sec  (  4.8%)
Orbital Transformation      ....       0.000 sec  (  0.0%)
Orbital Orthonormalization  ....       0.000 sec  (  0.0%)
DIIS solution               ....       0.002 sec  (  0.1%)
SOSCF solution              ....       0.004 sec  (  0.2%)


           ************************************************************
           *        Program running with 12 parallel MPI-processes    *
           *              working on a common directory               *
           ************************************************************

------------------------------------------------------------------------------
                                ORCA  MP2 
------------------------------------------------------------------------------

Freezing NCore=2 chemical core electrons
MP2 will be done in the AO integral direct mode
The Q1-step will be done using symmetric double matrices
Dimension of the basis                    ...   92
Memory devoted for MP2                    ... 8000 MB   
Memory needed for all in one shot         ...    4 MB
Number of MOs that can be treated together... 2663      
MP2 density construction                  ... relaxed
The MP2 gradient is requested => amplitudes will be stored on disk
Total number of MOs              ...    4
Number of MOs treated per batch  ...    1 
Number of batches necessary      ...    1 
OPERATORS   0/  0 PASS   0
-----------------------------------------------
 MP2 CORRELATION ENERGY   :     -0.269754348 Eh
-----------------------------------------------


---------------------
MP2 DENSITY FORMATION
---------------------

Completing the external part of the density      ... done
Storing the unrelaxed density                    ... done

Calculating G(D)                                 ... done
Completing the Lagrangian                        ... done
Solving the Z-vector equations                   ... 

------------------------------------------------------------------------------
                           ORCA CP-SCF CALCULATION
------------------------------------------------------------------------------

Input orbitals are from        ... 4h2o.temelso.etal.dset.1h2o-orca.engrad-mp2.augccpvtz.gbw
Input Perturbation             ... 4h2o.temelso.etal.dset.1h2o-orca.engrad-mp2.augccpvtz.pin.tmp
Wavefunction output            ... 4h2o.temelso.etal.dset.1h2o-orca.engrad-mp2.augccpvtz.pout.tmp
Perturbation mode              ... Real perturbation (singlet)
Solver                         ... POPLE
Max. number of iterations      ... 128
Convergence tolerance          ... 1.000e-08
Integral handling              ... Direct
Number of perturbations        ... 1
Number of operators            ... 1
Orbital ranges used for CP-SCF:
 Operator 0:  Orbitals   0...  4  to   5... 91
Variables per vector in CP-SCF ... 435
Number of vectors sought       ... 1
     CP-SCF ITERATION   0: 
     CP-SCF ITERATION   1:      0.000145134048
     CP-SCF ITERATION   2:      0.000005582051
     CP-SCF ITERATION   3:      0.000000178824
     CP-SCF ITERATION   4:      0.000000006030
                                                 ... done
Finalizing the relaxed density                   ... done
Transforming P to the AO basis                   ... done
Storing the relaxed density                      ... done

------------------------------------
ENERGY WEIGHTED DENSITY FINALIZATION
------------------------------------

Gathering the parts of the W-matrix              ...                                                      done
Forming the Z-density                            ... done
Transforming Z to the AO basis                   ... done
Calculating G(Z)                                 ... done
Finalizing the W-matrix                          ...                                                      done
Transforming W to the AO basis and storing       ... done

                *********************************************
                * UNRELAXED MP2 DENSITY POPULATION ANALYSIS *
                *********************************************

------------------------------------------------------------------------------
                           ORCA POPULATION ANALYSIS
------------------------------------------------------------------------------
Input electron density              ... 4h2o.temelso.etal.dset.1h2o-orca.engrad-mp2.augccpvtz.pmp2ur
BaseName (.gbw .S,...)              ... 4h2o.temelso.etal.dset.1h2o-orca.engrad-mp2.augccpvtz

                    ********************************
                    * MULLIKEN POPULATION ANALYSIS *
                    ********************************

-----------------------
MULLIKEN ATOMIC CHARGES
-----------------------
   0 O :   -0.452376
   1 H :    0.218402
   2 H :    0.233974
Sum of atomic charges:   -0.0000000

--------------------------------
MULLIKEN REDUCED ORBITAL CHARGES
--------------------------------
  0 O s       :     3.867448  s :     3.867448
      pz      :     1.449575  p :     4.532581
      px      :     1.748355
      py      :     1.334650
      dz2     :     0.012051  d :     0.047151
      dxz     :     0.009686
      dyz     :     0.006233
      dx2y2   :     0.010983
      dxy     :     0.008199
      f0      :     0.000589  f :     0.005197
      f+1     :     0.001079
      f-1     :     0.000676
      f+2     :     0.000619
      f-2     :     0.000599
      f+3     :     0.000741
      f-3     :     0.000894
  1 H s       :     0.663430  s :     0.663430
      pz      :     0.023441  p :     0.099439
      px      :     0.043021
      py      :     0.032977
      dz2     :     0.006400  d :     0.018729
      dxz     :     0.004073
      dyz     :     0.003910
      dx2y2   :     0.002848
      dxy     :     0.001498
  2 H s       :     0.654546  s :     0.654546
      pz      :     0.034655  p :     0.094288
      px      :     0.042990
      py      :     0.016644
      dz2     :     0.001256  d :     0.017192
      dxz     :     0.000594
      dyz     :     0.006144
      dx2y2   :     0.001187
      dxy     :     0.008012


                     *******************************
                     * LOEWDIN POPULATION ANALYSIS *
                     *******************************

----------------------
LOEWDIN ATOMIC CHARGES
----------------------
   0 O :    0.989820
   1 H :   -0.515552
   2 H :   -0.474268

-------------------------------
LOEWDIN REDUCED ORBITAL CHARGES
-------------------------------
  0 O s       :     3.020452  s :     3.020452
      pz      :     1.271121  p :     3.872055
      px      :     1.390641
      py      :     1.210293
      dz2     :     0.029065  d :     0.098708
      dxz     :     0.018511
      dyz     :     0.013396
      dx2y2   :     0.028426
      dxy     :     0.009308
      f0      :     0.001821  f :     0.018966
      f+1     :     0.005114
      f-1     :     0.003649
      f+2     :     0.001371
      f-2     :     0.001357
      f+3     :     0.001884
      f-3     :     0.003769
  1 H s       :     0.588957  s :     0.588957
      pz      :     0.234745  p :     0.560608
      px      :     0.185356
      py      :     0.140506
      dz2     :     0.116255  d :     0.365987
      dxz     :     0.099778
      dyz     :     0.091535
      dx2y2   :     0.035064
      dxy     :     0.023354
  2 H s       :     0.580930  s :     0.580930
      pz      :     0.136354  p :     0.535396
      px      :     0.157219
      py      :     0.241823
      dz2     :     0.034445  d :     0.357942
      dxz     :     0.004353
      dyz     :     0.113994
      dx2y2   :     0.091167
      dxy     :     0.113983


                      *****************************
                      * MAYER POPULATION ANALYSIS *
                      *****************************

  NA   - Mulliken gross atomic population
  ZA   - Total nuclear charge
  QA   - Mulliken gross atomic charge
  VA   - Mayer's total valence
  BVA  - Mayer's bonded valence
  FA   - Mayer's free valence

  ATOM       NA         ZA         QA         VA         BVA        FA
  0 O      8.4524     8.0000    -0.4524     2.2433     1.8673     0.3760
  1 H      0.7816     1.0000     0.2184     1.0422     0.9752     0.0670
  2 H      0.7660     1.0000     0.2340     1.0297     0.9620     0.0677

  Mayer bond orders larger than 0.100000
B(  0-O ,  1-H ) :   0.9403 B(  0-O ,  2-H ) :   0.9270 


                *******************************************
                * RELAXED MP2 DENSITY POPULATION ANALYSIS *
                *******************************************

------------------------------------------------------------------------------
                           ORCA POPULATION ANALYSIS
------------------------------------------------------------------------------
Input electron density              ... 4h2o.temelso.etal.dset.1h2o-orca.engrad-mp2.augccpvtz.pmp2re
BaseName (.gbw .S,...)              ... 4h2o.temelso.etal.dset.1h2o-orca.engrad-mp2.augccpvtz

                    ********************************
                    * MULLIKEN POPULATION ANALYSIS *
                    ********************************

-----------------------
MULLIKEN ATOMIC CHARGES
-----------------------
   0 O :   -0.447310
   1 H :    0.216642
   2 H :    0.230668
Sum of atomic charges:   -0.0000000

--------------------------------
MULLIKEN REDUCED ORBITAL CHARGES
--------------------------------
  0 O s       :     3.866982  s :     3.866982
      pz      :     1.450871  p :     4.528791
      px      :     1.736944
      py      :     1.340976
      dz2     :     0.011373  d :     0.046274
      dxz     :     0.009610
      dyz     :     0.006436
      dx2y2   :     0.010537
      dxy     :     0.008318
      f0      :     0.000594  f :     0.005263
      f+1     :     0.001083
      f-1     :     0.000680
      f+2     :     0.000639
      f-2     :     0.000607
      f+3     :     0.000751
      f-3     :     0.000908
  1 H s       :     0.655892  s :     0.655892
      pz      :     0.025655  p :     0.111390
      px      :     0.050708
      py      :     0.035026
      dz2     :     0.005320  d :     0.016076
      dxz     :     0.003210
      dyz     :     0.003550
      dx2y2   :     0.002572
      dxy     :     0.001424
  2 H s       :     0.647421  s :     0.647421
      pz      :     0.038722  p :     0.106999
      px      :     0.051284
      py      :     0.016993
      dz2     :     0.001090  d :     0.014912
      dxz     :     0.000599
      dyz     :     0.005545
      dx2y2   :     0.000621
      dxy     :     0.007057


                     *******************************
                     * LOEWDIN POPULATION ANALYSIS *
                     *******************************

----------------------
LOEWDIN ATOMIC CHARGES
----------------------
   0 O :    0.997596
   1 H :   -0.519193
   2 H :   -0.478403

-------------------------------
LOEWDIN REDUCED ORBITAL CHARGES
-------------------------------
  0 O s       :     3.021605  s :     3.021605
      pz      :     1.270702  p :     3.865932
      px      :     1.380354
      py      :     1.214877
      dz2     :     0.028251  d :     0.095774
      dxz     :     0.018307
      dyz     :     0.012477
      dx2y2   :     0.027626
      dxy     :     0.009113
      f0      :     0.001814  f :     0.019093
      f+1     :     0.005185
      f-1     :     0.003672
      f+2     :     0.001359
      f-2     :     0.001349
      f+3     :     0.001881
      f-3     :     0.003834
  1 H s       :     0.584164  s :     0.584164
      pz      :     0.239062  p :     0.576532
      px      :     0.194732
      py      :     0.142738
      dz2     :     0.113669  d :     0.358497
      dxz     :     0.097824
      dyz     :     0.089778
      dx2y2   :     0.034130
      dxy     :     0.023096
  2 H s       :     0.575877  s :     0.575877
      pz      :     0.141044  p :     0.551733
      px      :     0.166748
      py      :     0.243942
      dz2     :     0.034359  d :     0.350793
      dxz     :     0.004367
      dyz     :     0.111320
      dx2y2   :     0.089979
      dxy     :     0.110768


                      *****************************
                      * MAYER POPULATION ANALYSIS *
                      *****************************

  NA   - Mulliken gross atomic population
  ZA   - Total nuclear charge
  QA   - Mulliken gross atomic charge
  VA   - Mayer's total valence
  BVA  - Mayer's bonded valence
  FA   - Mayer's free valence

  ATOM       NA         ZA         QA         VA         BVA        FA
  0 O      8.4473     8.0000    -0.4473     2.2666     1.8979     0.3687
  1 H      0.7834     1.0000     0.2166     1.0562     0.9903     0.0659
  2 H      0.7693     1.0000     0.2307     1.0464     0.9797     0.0667

  Mayer bond orders larger than 0.100000
B(  0-O ,  1-H ) :   0.9543 B(  0-O ,  2-H ) :   0.9436 


----------------------------------
MP2 DERIVATIVE INTEGRAL GENERATION
----------------------------------


Input Wavefunction Amplitudes       ... 4h2o.temelso.etal.dset.1h2o-orca.engrad-mp2.augccpvtz.mp2tsaa.tmp
Input Correlated Electron Density   ... 4h2o.temelso.etal.dset.1h2o-orca.engrad-mp2.augccpvtz.pmp2re
Input Energy Weighted Density       ... 4h2o.temelso.etal.dset.1h2o-orca.engrad-mp2.augccpvtz.wmp2.tmp
Input SCF Electron Density          ... 4h2o.temelso.etal.dset.1h2o-orca.engrad-mp2.augccpvtz.scfp

One-Electron Terms    ...
                        ... One-Electron Terms done
Prescreening matrices              ... done

Batch handling in the gradient evaluation:
Memory available                      ... 8000.0 MB
Memory per occupied orbital in Q2     ...    0.3 MB
Memory per occupied orbital in Q3     ...    0.0 MB
Total memory requirement per |i>      ...    0.3 MB
Max. Number of orbitals possible      ...  27332
Number of orbitals treated per batch  ...      4
Number of batches to be done          ...      1
Batch   0: i=    1 ...     4

---------------------------------------
MP2 TOTAL ENERGY:      -76.328439550 Eh
---------------------------------------

The final MP2 gradient
  0:   0.00387646  -0.01949196  -0.00146738
  1:  -0.00103845  -0.00262506  -0.00299657
  2:  -0.00283802   0.02211702   0.00446395

-----------------------------------
NORM OF THE MP2 GRADIENT:  0.030516
-----------------------------------

-------------------------   --------------------
FINAL SINGLE POINT ENERGY       -76.328439550402
-------------------------   --------------------


                            ***************************************
                            *     ORCA property calculations      *
                            ***************************************

                                    ---------------------
                                    Active property flags
                                    ---------------------
   (+) Dipole Moment


------------------------------------------------------------------------------
                       ORCA ELECTRIC PROPERTIES CALCULATION
------------------------------------------------------------------------------

Dipole Moment Calculation                       ... on
Quadrupole Moment Calculation                   ... off
Polarizability Calculation                      ... off
GBWName                                         ... 4h2o.temelso.etal.dset.1h2o-orca.engrad-mp2.augccpvtz.gbw
Electron density file                           ... 4h2o.temelso.etal.dset.1h2o-orca.engrad-mp2.augccpvtz.scfp
The origin for moment calculation is the CENTER OF MASS  = (-0.000009,  0.000011 -0.000011)

-------------
DIPOLE MOMENT
-------------
                                X             Y             Z
Electronic contribution:      0.10035      -0.13261       0.12270
Nuclear contribution   :     -0.48393       0.62335      -0.59872
                        -----------------------------------------
Total Dipole Moment    :     -0.38359       0.49075      -0.47602
                        -----------------------------------------
Magnitude (a.u.)       :      0.78394
Magnitude (Debye)      :      1.99262



--------------------
Rotational spectrum 
--------------------
 
Rotational constants in cm-1:    26.617911    14.007321     9.177686 
Rotational constants in MHz : 797984.882406 419928.924206 275140.105467 

 Dipole components along the rotational axes: 
x,y,z [a.u.] :    -0.031644    -0.783303     0.000000 
x,y,z [Debye]:    -0.080433    -1.990998     0.000000 

 

                         *** MP2 UNRELAXED DENSITY ***

------------------------------------------------------------------------------
                       ORCA ELECTRIC PROPERTIES CALCULATION
------------------------------------------------------------------------------

Dipole Moment Calculation                       ... on
Quadrupole Moment Calculation                   ... off
Polarizability Calculation                      ... off
GBWName                                         ... 4h2o.temelso.etal.dset.1h2o-orca.engrad-mp2.augccpvtz.gbw
Electron density file                           ... 4h2o.temelso.etal.dset.1h2o-orca.engrad-mp2.augccpvtz.pmp2ur
The origin for moment calculation is the CENTER OF MASS  = (-0.000009,  0.000011 -0.000011)

-------------
DIPOLE MOMENT
-------------
                                X             Y             Z
Electronic contribution:      0.10859      -0.14352       0.13276
Nuclear contribution   :     -0.48393       0.62335      -0.59872
                        -----------------------------------------
Total Dipole Moment    :     -0.37535       0.47983      -0.46596
                        -----------------------------------------
Magnitude (a.u.)       :      0.76697
Magnitude (Debye)      :      1.94948



--------------------
Rotational spectrum 
--------------------
 
Rotational constants in cm-1:    26.617911    14.007321     9.177686 
Rotational constants in MHz : 797984.882406 419928.924206 275140.105467 

 Dipole components along the rotational axes: 
x,y,z [a.u.] :    -0.030575    -0.766359     0.000000 
x,y,z [Debye]:    -0.077717    -1.947930     0.000000 

 

                           *** MP2 RELAXED DENSITY ***

------------------------------------------------------------------------------
                       ORCA ELECTRIC PROPERTIES CALCULATION
------------------------------------------------------------------------------

Dipole Moment Calculation                       ... on
Quadrupole Moment Calculation                   ... off
Polarizability Calculation                      ... off
GBWName                                         ... 4h2o.temelso.etal.dset.1h2o-orca.engrad-mp2.augccpvtz.gbw
Electron density file                           ... 4h2o.temelso.etal.dset.1h2o-orca.engrad-mp2.augccpvtz.pmp2re
The origin for moment calculation is the CENTER OF MASS  = (-0.000009,  0.000011 -0.000011)

-------------
DIPOLE MOMENT
-------------
                                X             Y             Z
Electronic contribution:      0.12657      -0.16584       0.15538
Nuclear contribution   :     -0.48393       0.62335      -0.59872
                        -----------------------------------------
Total Dipole Moment    :     -0.35736       0.45752      -0.44333
                        -----------------------------------------
Magnitude (a.u.)       :      0.73046
Magnitude (Debye)      :      1.85668



--------------------
Rotational spectrum 
--------------------
 
Rotational constants in cm-1:    26.617911    14.007321     9.177686 
Rotational constants in MHz : 797984.882406 419928.924206 275140.105467 

 Dipole components along the rotational axes: 
x,y,z [a.u.] :    -0.029815    -0.729852     0.000000 
x,y,z [Debye]:    -0.075784    -1.855136     0.000000 

 

Timings for individual modules:

Sum of individual times         ...        9.512 sec (=   0.159 min)
GTO integral calculation        ...        2.719 sec (=   0.045 min)  28.6 %
SCF iterations                  ...        2.097 sec (=   0.035 min)  22.0 %
MP2 module                      ...        4.697 sec (=   0.078 min)  49.4 %


                 $$$$$$$$$$$$$$$$  JOB NUMBER  2 $$$$$$$$$$$$$$


                     *******************************
                     * Energy+Gradient Calculation *
                     *******************************

---------------------------------
CARTESIAN COORDINATES (ANGSTROEM)
---------------------------------
  O      0.041718    0.043408   -0.028448
  H     -0.915882   -0.095392   -0.213148
  H      0.253618   -0.593692    0.664752

----------------------------
CARTESIAN COORDINATES (A.U.)
----------------------------
  NO LB      ZA    FRAG     MASS         X           Y           Z
   0 O     8.0000    0    15.999    0.078836    0.082029   -0.053759
   1 H     1.0000    0     1.008   -1.730765   -0.180265   -0.402792
   2 H     1.0000    0     1.008    0.479269   -1.121915    1.256199

--------------------------------
INTERNAL COORDINATES (ANGSTROEM)
--------------------------------
 O      0   0   0     0.000000000000     0.00000000     0.00000000
 H      1   0   0     0.985077301535     0.00000000     0.00000000
 H      1   2   0     0.965051428681   104.78007913     0.00000000

---------------------------
INTERNAL COORDINATES (A.U.)
---------------------------
 O      0   0   0     0.000000000000     0.00000000     0.00000000
 H      1   0   0     1.861526320644     0.00000000     0.00000000
 H      1   2   0     1.823682905357   104.78007913     0.00000000

---------------------
BASIS SET INFORMATION
---------------------
There are 2 groups of distinct atoms

 Group   1 Type O   : 19s6p3d2f contracted to 5s4p3d2f pattern {88111/3111/111/11}
 Group   2 Type H   : 6s3p2d contracted to 4s3p2d pattern {3111/111/11}

Atom   0O    basis set group =>   1
Atom   1H    basis set group =>   2
Atom   2H    basis set group =>   2


           ************************************************************
           *        Program running with 12 parallel MPI-processes    *
           *              working on a common directory               *
           ************************************************************
------------------------------------------------------------------------------
                           ORCA GTO INTEGRAL CALCULATION
------------------------------------------------------------------------------

                         BASIS SET STATISTICS AND STARTUP INFO

[...]
           *        Program running with 12 parallel MPI-processes    *
           *              working on a common directory               *
           ************************************************************

------------------------------------------------------------------------------
                                ORCA  MP2 
------------------------------------------------------------------------------

Freezing NCore=2 chemical core electrons
MP2 will be done in the AO integral direct mode
The Q1-step will be done using symmetric double matrices
Dimension of the basis                    ...   92
Memory devoted for MP2                    ... 8000 MB   
Memory needed for all in one shot         ...    4 MB
Number of MOs that can be treated together... 2663      
MP2 density construction                  ... relaxed
The MP2 gradient is requested => amplitudes will be stored on disk
Total number of MOs              ...    4
Number of MOs treated per batch  ...    1 
Number of batches necessary      ...    1 
OPERATORS   0/  0 PASS   0
-----------------------------------------------
 MP2 CORRELATION ENERGY   :     -0.269787955 Eh
-----------------------------------------------


---------------------
MP2 DENSITY FORMATION
---------------------

Completing the external part of the density      ... done
Storing the unrelaxed density                    ... done

Calculating G(D)                                 ... done
Completing the Lagrangian                        ... done
Solving the Z-vector equations                   ... 

------------------------------------------------------------------------------
                           ORCA CP-SCF CALCULATION
------------------------------------------------------------------------------

Input orbitals are from        ... 4h2o.temelso.etal.dset.1h2o-orca.engrad-mp2.augccpvtz_job12.gbw
Input Perturbation             ... 4h2o.temelso.etal.dset.1h2o-orca.engrad-mp2.augccpvtz_job12.pin.tmp
Wavefunction output            ... 4h2o.temelso.etal.dset.1h2o-orca.engrad-mp2.augccpvtz_job12.pout.tmp
Perturbation mode              ... Real perturbation (singlet)
Solver                         ... POPLE
Max. number of iterations      ... 128
Convergence tolerance          ... 1.000e-08
Integral handling              ... Direct
Number of perturbations        ... 1
Number of operators            ... 1
Orbital ranges used for CP-SCF:
 Operator 0:  Orbitals   0...  4  to   5... 91
Variables per vector in CP-SCF ... 435
Number of vectors sought       ... 1
     CP-SCF ITERATION   0: 
     CP-SCF ITERATION   1:      0.000144249332
     CP-SCF ITERATION   2:      0.000005693993
     CP-SCF ITERATION   3:      0.000000183017
     CP-SCF ITERATION   4:      0.000000005343
                                                 ... done
Finalizing the relaxed density                   ... done
Transforming P to the AO basis                   ... done
Storing the relaxed density                      ... done

------------------------------------
ENERGY WEIGHTED DENSITY FINALIZATION
------------------------------------

Gathering the parts of the W-matrix              ...                                                      done
Forming the Z-density                            ... done
Transforming Z to the AO basis                   ... done
Calculating G(Z)                                 ... done
Finalizing the W-matrix                          ...                                                      done
Transforming W to the AO basis and storing       ... done

                *********************************************
                * UNRELAXED MP2 DENSITY POPULATION ANALYSIS *
                *********************************************

------------------------------------------------------------------------------
                           ORCA POPULATION ANALYSIS
------------------------------------------------------------------------------
Input electron density              ... 4h2o.temelso.etal.dset.1h2o-orca.engrad-mp2.augccpvtz_job12.pmp2ur
BaseName (.gbw .S,...)              ... 4h2o.temelso.etal.dset.1h2o-orca.engrad-mp2.augccpvtz_job12

                    ********************************
                    * MULLIKEN POPULATION ANALYSIS *
                    ********************************

-----------------------
MULLIKEN ATOMIC CHARGES
-----------------------
   0 O :   -0.448820
   1 H :    0.222231
   2 H :    0.226589
Sum of atomic charges:   -0.0000000

--------------------------------
MULLIKEN REDUCED ORBITAL CHARGES
--------------------------------
  0 O s       :     3.870442  s :     3.870442
      pz      :     1.479239  p :     4.525045
      px      :     1.455077
      py      :     1.590729
      dz2     :     0.007374  d :     0.048146
      dxz     :     0.008803
      dyz     :     0.010984
      dx2y2   :     0.012541
      dxy     :     0.008445
      f0      :     0.000780  f :     0.005187
      f+1     :     0.000561
      f-1     :     0.000865
      f+2     :     0.000937
      f-2     :     0.000628
      f+3     :     0.000715
      f-3     :     0.000700
  1 H s       :     0.662299  s :     0.662299
      pz      :     0.031132  p :     0.097739
      px      :     0.035162
      py      :     0.031446
      dz2     :     0.006898  d :     0.017731
      dxz     :     0.004480
      dyz     :     0.000408
      dx2y2   :     0.003113
      dxy     :     0.002832
  2 H s       :     0.659767  s :     0.659767
      pz      :     0.035369  p :     0.096332
      px      :     0.022258
      py      :     0.038705
      dz2     :     0.004739  d :     0.017312
      dxz     :     0.001822
      dyz     :     0.002894
      dx2y2   :     0.002607
      dxy     :     0.005250


                     *******************************
                     * LOEWDIN POPULATION ANALYSIS *
                     *******************************

----------------------
LOEWDIN ATOMIC CHARGES
----------------------
   0 O :    0.998254
   1 H :   -0.504868
   2 H :   -0.493386

-------------------------------
LOEWDIN REDUCED ORBITAL CHARGES
-------------------------------
  0 O s       :     3.021125  s :     3.021125
      pz      :     1.255669  p :     3.863167
      px      :     1.275047
      py      :     1.332451
      dz2     :     0.009344  d :     0.097968
      dxz     :     0.024127
      dyz     :     0.030759
      dx2y2   :     0.027599
      dxy     :     0.006138
      f0      :     0.002670  f :     0.019487
      f+1     :     0.000671
      f-1     :     0.003585
      f+2     :     0.006318
      f-2     :     0.001441
      f+3     :     0.002731
      f-3     :     0.002072
  1 H s       :     0.583985  s :     0.583985
      pz      :     0.197423  p :     0.555232
      px      :     0.146420
      py      :     0.211389
      dz2     :     0.093375  d :     0.365650
      dxz     :     0.071940
      dyz     :     0.090342
      dx2y2   :     0.054679
      dxy     :     0.055315
  2 H s       :     0.581763  s :     0.581763
      pz      :     0.161759  p :     0.548188
      px      :     0.233010
      py      :     0.153419
      dz2     :     0.066919  d :     0.363435
      dxz     :     0.094141
      dyz     :     0.033979
      dx2y2   :     0.077403
      dxy     :     0.090993


                      *****************************
                      * MAYER POPULATION ANALYSIS *
                      *****************************

  NA   - Mulliken gross atomic population
  ZA   - Total nuclear charge
  QA   - Mulliken gross atomic charge
  VA   - Mayer's total valence
  BVA  - Mayer's bonded valence
  FA   - Mayer's free valence

  ATOM       NA         ZA         QA         VA         BVA        FA
  0 O      8.4488     8.0000    -0.4488     2.2451     1.8698     0.3754
  1 H      0.7778     1.0000     0.2222     1.0383     0.9710     0.0673
  2 H      0.7734     1.0000     0.2266     1.0348     0.9673     0.0675

  Mayer bond orders larger than 0.100000
B(  0-O ,  1-H ) :   0.9367 B(  0-O ,  2-H ) :   0.9331 


                *******************************************
                * RELAXED MP2 DENSITY POPULATION ANALYSIS *
                *******************************************

------------------------------------------------------------------------------
                           ORCA POPULATION ANALYSIS
------------------------------------------------------------------------------
Input electron density              ... 4h2o.temelso.etal.dset.1h2o-orca.engrad-mp2.augccpvtz_job12.pmp2re
BaseName (.gbw .S,...)              ... 4h2o.temelso.etal.dset.1h2o-orca.engrad-mp2.augccpvtz_job12

                    ********************************
                    * MULLIKEN POPULATION ANALYSIS *
                    ********************************

-----------------------
MULLIKEN ATOMIC CHARGES
-----------------------
   0 O :   -0.443676
   1 H :    0.219867
   2 H :    0.223809
Sum of atomic charges:   -0.0000000

--------------------------------
MULLIKEN REDUCED ORBITAL CHARGES
--------------------------------
  0 O s       :     3.869988  s :     3.869988
      pz      :     1.478351  p :     4.521132
      px      :     1.456514
      py      :     1.586267
      dz2     :     0.007379  d :     0.047313
      dxz     :     0.008550
      dyz     :     0.010418
      dx2y2   :     0.012109
      dxy     :     0.008858
      f0      :     0.000781  f :     0.005242
      f+1     :     0.000570
      f-1     :     0.000879
      f+2     :     0.000977
      f-2     :     0.000639
      f+3     :     0.000707
      f-3     :     0.000690
  1 H s       :     0.654997  s :     0.654997
      pz      :     0.033552  p :     0.109882
      px      :     0.039689
      py      :     0.036641
      dz2     :     0.006184  d :     0.015254
      dxz     :     0.004089
      dyz     :    -0.000120
      dx2y2   :     0.002567
      dxy     :     0.002535
  2 H s       :     0.652565  s :     0.652565
      pz      :     0.038529  p :     0.108687
      px      :     0.025062
      py      :     0.045096
      dz2     :     0.004370  d :     0.014939
      dxz     :     0.001353
      dyz     :     0.002676
      dx2y2   :     0.001937
      dxy     :     0.004602


                     *******************************
                     * LOEWDIN POPULATION ANALYSIS *
                     *******************************

----------------------
LOEWDIN ATOMIC CHARGES
----------------------
   0 O :    1.006097
   1 H :   -0.508720
   2 H :   -0.497377

-------------------------------
LOEWDIN REDUCED ORBITAL CHARGES
-------------------------------
  0 O s       :     3.022220  s :     3.022220
      pz      :     1.256248  p :     3.856963
      px      :     1.274024
      py      :     1.326692
      dz2     :     0.009092  d :     0.095116
      dxz     :     0.023141
      dyz     :     0.030025
      dx2y2   :     0.026763
      dxy     :     0.006096
      f0      :     0.002679  f :     0.019604
      f+1     :     0.000656
      f-1     :     0.003639
      f+2     :     0.006416
      f-2     :     0.001401
      f+3     :     0.002743
      f-3     :     0.002070
  1 H s       :     0.579097  s :     0.579097
      pz      :     0.201360  p :     0.571365
      px      :     0.151484
      py      :     0.218521
      dz2     :     0.091043  d :     0.358259
      dxz     :     0.070260
      dyz     :     0.089756
      dx2y2   :     0.053163
      dxy     :     0.054037
  2 H s       :     0.576800  s :     0.576800
      pz      :     0.165852  p :     0.564439
      px      :     0.237818
      py      :     0.160768
      dz2     :     0.065751  d :     0.356137
      dxz     :     0.092702
      dyz     :     0.033239
      dx2y2   :     0.075784
      dxy     :     0.088662


                      *****************************
                      * MAYER POPULATION ANALYSIS *
                      *****************************

  NA   - Mulliken gross atomic population
  ZA   - Total nuclear charge
  QA   - Mulliken gross atomic charge
  VA   - Mayer's total valence
  BVA  - Mayer's bonded valence
  FA   - Mayer's free valence

  ATOM       NA         ZA         QA         VA         BVA        FA
  0 O      8.4437     8.0000    -0.4437     2.2679     1.8999     0.3680
  1 H      0.7801     1.0000     0.2199     1.0531     0.9868     0.0663
  2 H      0.7762     1.0000     0.2238     1.0504     0.9839     0.0665

  Mayer bond orders larger than 0.100000
B(  0-O ,  1-H ) :   0.9514 B(  0-O ,  2-H ) :   0.9485 


----------------------------------
MP2 DERIVATIVE INTEGRAL GENERATION
----------------------------------


Input Wavefunction Amplitudes       ... 4h2o.temelso.etal.dset.1h2o-orca.engrad-mp2.augccpvtz_job12.mp2tsaa.tmp
Input Correlated Electron Density   ... 4h2o.temelso.etal.dset.1h2o-orca.engrad-mp2.augccpvtz_job12.pmp2re
Input Energy Weighted Density       ... 4h2o.temelso.etal.dset.1h2o-orca.engrad-mp2.augccpvtz_job12.wmp2.tmp
Input SCF Electron Density          ... 4h2o.temelso.etal.dset.1h2o-orca.engrad-mp2.augccpvtz_job12.scfp

One-Electron Terms    ...
                        ... One-Electron Terms done
Prescreening matrices              ... done

Batch handling in the gradient evaluation:
Memory available                      ... 8000.0 MB
Memory per occupied orbital in Q2     ...    0.3 MB
Memory per occupied orbital in Q3     ...    0.0 MB
Total memory requirement per |i>      ...    0.3 MB
Max. Number of orbitals possible      ...  27332
Number of orbitals treated per batch  ...      4
Number of batches to be done          ...      1
Batch   0: i=    1 ...     4

---------------------------------------
MP2 TOTAL ENERGY:      -76.328683836 Eh
---------------------------------------

The final MP2 gradient
  0:  -0.01381442  -0.00908011  -0.00003155
  1:   0.00269165   0.00547470  -0.00385584
  2:   0.01112277   0.00360541   0.00388739

-----------------------------------
NORM OF THE MP2 GRADIENT:  0.021845
-----------------------------------

-------------------------   --------------------
FINAL SINGLE POINT ENERGY       -76.328683836239
-------------------------   --------------------


                            ***************************************
                            *     ORCA property calculations      *
                            ***************************************

                                    ---------------------
                                    Active property flags
                                    ---------------------
   (+) Dipole Moment


------------------------------------------------------------------------------
                       ORCA ELECTRIC PROPERTIES CALCULATION
------------------------------------------------------------------------------

Dipole Moment Calculation                       ... on
Quadrupole Moment Calculation                   ... off
Polarizability Calculation                      ... off
GBWName                                         ... 4h2o.temelso.etal.dset.1h2o-orca.engrad-mp2.augccpvtz_job12.gbw
Electron density file                           ... 4h2o.temelso.etal.dset.1h2o-orca.engrad-mp2.augccpvtz_job12.scfp
The origin for moment calculation is the CENTER OF MASS  = ( 0.000013,  0.000012 -0.000004)

-------------
DIPOLE MOMENT
-------------
                                X             Y             Z
Electronic contribution:     -0.15873      -0.14405       0.04103
Nuclear contribution   :      0.73947       0.67521      -0.19544
                        -----------------------------------------
Total Dipole Moment    :      0.58074       0.53116      -0.15441
                        -----------------------------------------
Magnitude (a.u.)       :      0.80202
Magnitude (Debye)      :      2.03858



--------------------
Rotational spectrum 
--------------------
 
Rotational constants in cm-1:    25.069664    14.673851     9.256064 
Rotational constants in MHz : 751569.609475 439910.976542 277489.809506 

 Dipole components along the rotational axes: 
x,y,z [a.u.] :     0.010192    -0.801957    -0.000001 
x,y,z [Debye]:     0.025905    -2.038412    -0.000002 

 

                         *** MP2 UNRELAXED DENSITY ***

------------------------------------------------------------------------------
                       ORCA ELECTRIC PROPERTIES CALCULATION
------------------------------------------------------------------------------

Dipole Moment Calculation                       ... on
Quadrupole Moment Calculation                   ... off
Polarizability Calculation                      ... off
GBWName                                         ... 4h2o.temelso.etal.dset.1h2o-orca.engrad-mp2.augccpvtz_job12.gbw
Electron density file                           ... 4h2o.temelso.etal.dset.1h2o-orca.engrad-mp2.augccpvtz_job12.pmp2ur
The origin for moment calculation is the CENTER OF MASS  = ( 0.000013,  0.000012 -0.000004)

-------------
DIPOLE MOMENT
-------------
                                X             Y             Z
Electronic contribution:     -0.17145      -0.15559       0.04431
Nuclear contribution   :      0.73947       0.67521      -0.19544
                        -----------------------------------------
Total Dipole Moment    :      0.56802       0.51962      -0.15113
                        -----------------------------------------
Magnitude (a.u.)       :      0.78454
Magnitude (Debye)      :      1.99414



--------------------
Rotational spectrum 
--------------------
 
Rotational constants in cm-1:    25.069664    14.673851     9.256064 
Rotational constants in MHz : 751569.609475 439910.976542 277489.809506 

 Dipole components along the rotational axes: 
x,y,z [a.u.] :     0.009863    -0.784475    -0.000001 
x,y,z [Debye]:     0.025070    -1.993978    -0.000002 

 

                           *** MP2 RELAXED DENSITY ***

------------------------------------------------------------------------------
                       ORCA ELECTRIC PROPERTIES CALCULATION
------------------------------------------------------------------------------

Dipole Moment Calculation                       ... on
Quadrupole Moment Calculation                   ... off
Polarizability Calculation                      ... off
GBWName                                         ... 4h2o.temelso.etal.dset.1h2o-orca.engrad-mp2.augccpvtz_job12.gbw
Electron density file                           ... 4h2o.temelso.etal.dset.1h2o-orca.engrad-mp2.augccpvtz_job12.pmp2re
The origin for moment calculation is the CENTER OF MASS  = ( 0.000013,  0.000012 -0.000004)

-------------
DIPOLE MOMENT
-------------
                                X             Y             Z
Electronic contribution:     -0.19875      -0.18073       0.05175
Nuclear contribution   :      0.73947       0.67521      -0.19544
                        -----------------------------------------
Total Dipole Moment    :      0.54072       0.49448      -0.14369
                        -----------------------------------------
Magnitude (a.u.)       :      0.74668
Magnitude (Debye)      :      1.89792



--------------------
Rotational spectrum 
--------------------
 
Rotational constants in cm-1:    25.069664    14.673851     9.256064 
Rotational constants in MHz : 751569.609475 439910.976542 277489.809506 

 Dipole components along the rotational axes: 
x,y,z [a.u.] :     0.009580    -0.746622    -0.000001 
x,y,z [Debye]:     0.024351    -1.897763    -0.000002 

 

Timings for individual modules:

Sum of individual times         ...        5.940 sec (=   0.099 min)
GTO integral calculation        ...        0.841 sec (=   0.014 min)  14.2 %
SCF iterations                  ...        2.739 sec (=   0.046 min)  46.1 %
MP2 module                      ...        2.360 sec (=   0.039 min)  39.7 %



                             ****ORCA TERMINATED NORMALLY****
TOTAL RUN TIME: 0 days 0 hours 1 minutes 24 seconds 103 msec
