
                                 *****************
                                 * O   R   C   A *
                                 *****************

           --- An Ab Initio, DFT and Semiempirical electronic structure package ---

                  #######################################################
                  #                        -***-                        #
                  #          Department of theory and spectroscopy      #
                  #               Directorship: Frank Neese             #
                  #        Max Planck Institute fuer Kohlenforschung    #
                  #                Kaiser Wilhelm Platz 1               #
                  #                 D-45470 Muelheim/Ruhr               #
                  #                      Germany                        #
                  #                                                     #
                  #                  All rights reserved                #
                  #                        -***-                        #
                  #######################################################


                         Program Version 4.2.0 -  RELEASE  -


 With contributions from (in alphabetic order):
   Daniel Aravena         : Magnetic Suceptibility
   Michael Atanasov       : Ab Initio Ligand Field Theory (pilot matlab implementation)
   Alexander A. Auer      : GIAO ZORA, VPT2
   Ute Becker             : Parallelization
   Giovanni Bistoni       : ED, misc. LED, open-shell LED, HFLED
   Martin Brehm           : Molecular dynamics
   Dmytro Bykov           : SCF Hessian
   Vijay G. Chilkuri      : MRCI spin determinant printing, contributions to CSF-ICE
   Dipayan Datta          : RHF DLPNO-CCSD density
   Achintya Kumar Dutta   : EOM-CC, STEOM-CC
   Dmitry Ganyushin       : Spin-Orbit,Spin-Spin,Magnetic field MRCI
   Miquel Garcia          : C-PCM Hessian, Gaussian charge scheme
   Yang Guo               : DLPNO-NEVPT2, CIM, IAO-localization
   Andreas Hansen         : Spin unrestricted coupled pair/coupled cluster methods
   Benjamin Helmich-Paris : CASSCF linear response (MC-RPA)
   Lee Huntington         : MR-EOM, pCC
   Robert Izsak           : Overlap fitted RIJCOSX, COSX-SCS-MP3, EOM
   Christian Kollmar      : KDIIS, OOCD, Brueckner-CCSD(T), CCSD density
   Simone Kossmann        : Meta GGA functionals, TD-DFT gradient, OOMP2, MP2 Hessian
   Martin Krupicka        : AUTO-CI
   Lucas Lang             : DCDCAS
   Dagmar Lenk            : GEPOL surface, SMD
   Dimitrios Liakos       : Extrapolation schemes; Compound Job, initial MDCI parallelization
   Dimitrios Manganas     : Further ROCIS development; embedding schemes
   Dimitrios Pantazis     : SARC Basis sets
   Taras Petrenko         : DFT Hessian,TD-DFT gradient, ASA, ECA, R-Raman, ABS, FL, XAS/XES, NRVS
   Peter Pinski           : DLPNO-MP2, DLPNO-MP2 Gradient
   Christoph Reimann      : Effective Core Potentials
   Marius Retegan         : Local ZFS, SOC
   Christoph Riplinger    : Optimizer, TS searches, QM/MM, DLPNO-CCSD(T), (RO)-DLPNO pert. Triples
   Tobias Risthaus        : Range-separated hybrids, TD-DFT gradient, RPA, STAB
   Michael Roemelt        : Original ROCIS implementation
   Masaaki Saitow         : Open-shell DLPNO-CCSD energy and density
   Barbara Sandhoefer     : DKH picture change effects
   Avijit Sen             : IP-ROCIS
   Kantharuban Sivalingam : CASSCF convergence, NEVPT2, FIC-MRCI
   Bernardo de Souza      : ESD, SOC TD-DFT
   Georgi Stoychev        : AutoAux, RI-MP2 NMR
   Willem Van den Heuvel  : Paramagnetic NMR
   Boris Wezisla          : Elementary symmetry handling
   Frank Wennmohs         : Technical directorship


 We gratefully acknowledge several colleagues who have allowed us to
 interface, adapt or use parts of their codes:
   Stefan Grimme, W. Hujo, H. Kruse,             : VdW corrections, initial TS optimization,
                  C. Bannwarth                     DFT functionals, gCP, sTDA/sTD-DF
   Ed Valeev, F. Pavosevic, A. Kumar             : LibInt (2-el integral package), F12 methods
   Garnet Chan, S. Sharma, J. Yang, R. Olivares  : DMRG
   Ulf Ekstrom                                   : XCFun DFT Library
   Mihaly Kallay                                 : mrcc  (arbitrary order and MRCC methods)
   Andreas Klamt, Michael Diedenhofen            : otool_cosmo (COSMO solvation model)
   Jiri Pittner, Ondrej Demel                    : Mk-CCSD
   Frank Weinhold                                : gennbo (NPA and NBO analysis)
   Christopher J. Cramer and Donald G. Truhlar   : smd solvation model
   Lars Goerigk                                  : TD-DFT with DH, B97 family of functionals
   V. Asgeirsson, H. Jonsson                     : NEB implementation
   FAccTs GmbH                                   : IRC, NEB, NEB-TS, Multilevel, MM, QM/MM, CI optimization
   S Lehtola, MJT Oliveira, MAL Marques          : LibXC Library


 Your calculation uses the libint2 library for the computation of 2-el integrals
 For citations please refer to: http://libint.valeyev.net

 Your ORCA version has been built with support for libXC version: 4.2.3
 For citations please refer to: https://tddft.org/programs/libxc/

 This ORCA versions uses:
   CBLAS   interface :  Fast vector & matrix operations
   LAPACKE interface :  Fast linear algebra routines
   SCALAPACK package :  Parallel linear algebra routines


----- Orbital basis set information -----
Your calculation utilizes the basis: aug-cc-pVTZ 
    H, B-Ne : Obtained from the ccRepo (grant-hill.group.shef.ac.uk/ccrepo) Feb. 2017
              R. A. Kendall, T. H. Dunning, Jr., R. J. Harrison, J. Chem. Phys. 96, 6796 (1992)
         He : Obtained from the ccRepo (grant-hill.group.shef.ac.uk/ccrepo) Feb. 2017
              D. E. Woon, T. H. Dunning, Jr., J. Chem. Phys. 100, 2975 (1994)
  Li-Be, Na : Obtained from the ccRepo (grant-hill.group.shef.ac.uk/ccrepo) Feb. 2017
              B. P. Prascher, D. E. Woon, K. A. Peterson, T. H. Dunning, Jr., A. K. Wilson, Theor. Chem. Acc. 128, 69 (2011)
         Mg : Obtained from the Peterson Research Group Website (tyr0.chem.wsu.edu/~kipeters) Feb. 2017
              B. P. Prascher, D. E. Woon, K. A. Peterson, T. H. Dunning, Jr., A. K. Wilson, Theor. Chem. Acc. 128, 69 (2011)
      Al-Ar : Obtained from the ccRepo (grant-hill.group.shef.ac.uk/ccrepo) Feb. 2017
              D. E. Woon, T. H. Dunning, Jr., J. Chem. Phys. 98, 1358 (1993)
      Sc-Zn : Obtained from the ccRepo (grant-hill.group.shef.ac.uk/ccrepo) Feb. 2017
              N. B. Balabanov, K. A. Peterson, J. Chem. Phys. 123, 064107 (2005)
              N. B. Balabanov, K. A. Peterson, J. Chem. Phys. 125, 074110 (2006)
      Ga-Kr : Obtained from the ccRepo (grant-hill.group.shef.ac.uk/ccrepo) Feb. 2017
              A. K. Wilson, D. E. Woon, K. A. Peterson, T. H. Dunning, Jr., J. Chem. Phys. 110, 7667 (1999)
     Ag, Au : Obtained from the Peterson Research Group Website (tyr0.chem.wsu.edu/~kipeters) Feb. 2017
              K. A. Peterson, C. Puzzarini, Theor. Chem. Acc. 114, 283 (2005)

================================================================================
                                        WARNINGS
                       Please study these warnings very carefully!
================================================================================


WARNING: The frozen-core approximation for MP2-gradient calculations is turned on by default.

INFO   : the flag for use of LIBINT has been found!

----- Orbital basis set information -----
Your calculation utilizes the basis: aug-cc-pVTZ 
    H, B-Ne : Obtained from the ccRepo (grant-hill.group.shef.ac.uk/ccrepo) Feb. 2017
              R. A. Kendall, T. H. Dunning, Jr., R. J. Harrison, J. Chem. Phys. 96, 6796 (1992)
         He : Obtained from the ccRepo (grant-hill.group.shef.ac.uk/ccrepo) Feb. 2017
              D. E. Woon, T. H. Dunning, Jr., J. Chem. Phys. 100, 2975 (1994)
  Li-Be, Na : Obtained from the ccRepo (grant-hill.group.shef.ac.uk/ccrepo) Feb. 2017
              B. P. Prascher, D. E. Woon, K. A. Peterson, T. H. Dunning, Jr., A. K. Wilson, Theor. Chem. Acc. 128, 69 (2011)
         Mg : Obtained from the Peterson Research Group Website (tyr0.chem.wsu.edu/~kipeters) Feb. 2017
              B. P. Prascher, D. E. Woon, K. A. Peterson, T. H. Dunning, Jr., A. K. Wilson, Theor. Chem. Acc. 128, 69 (2011)
      Al-Ar : Obtained from the ccRepo (grant-hill.group.shef.ac.uk/ccrepo) Feb. 2017
              D. E. Woon, T. H. Dunning, Jr., J. Chem. Phys. 98, 1358 (1993)
      Sc-Zn : Obtained from the ccRepo (grant-hill.group.shef.ac.uk/ccrepo) Feb. 2017
              N. B. Balabanov, K. A. Peterson, J. Chem. Phys. 123, 064107 (2005)
              N. B. Balabanov, K. A. Peterson, J. Chem. Phys. 125, 074110 (2006)
      Ga-Kr : Obtained from the ccRepo (grant-hill.group.shef.ac.uk/ccrepo) Feb. 2017
              A. K. Wilson, D. E. Woon, K. A. Peterson, T. H. Dunning, Jr., J. Chem. Phys. 110, 7667 (1999)
     Ag, Au : Obtained from the Peterson Research Group Website (tyr0.chem.wsu.edu/~kipeters) Feb. 2017
              K. A. Peterson, C. Puzzarini, Theor. Chem. Acc. 114, 283 (2005)

================================================================================
                                        WARNINGS
                       Please study these warnings very carefully!
================================================================================


WARNING: The frozen-core approximation for MP2-gradient calculations is turned on by default.

INFO   : the flag for use of LIBINT has been found!

----- Orbital basis set information -----
Your calculation utilizes the basis: aug-cc-pVTZ 
    H, B-Ne : Obtained from the ccRepo (grant-hill.group.shef.ac.uk/ccrepo) Feb. 2017
              R. A. Kendall, T. H. Dunning, Jr., R. J. Harrison, J. Chem. Phys. 96, 6796 (1992)
         He : Obtained from the ccRepo (grant-hill.group.shef.ac.uk/ccrepo) Feb. 2017
              D. E. Woon, T. H. Dunning, Jr., J. Chem. Phys. 100, 2975 (1994)
  Li-Be, Na : Obtained from the ccRepo (grant-hill.group.shef.ac.uk/ccrepo) Feb. 2017
              B. P. Prascher, D. E. Woon, K. A. Peterson, T. H. Dunning, Jr., A. K. Wilson, Theor. Chem. Acc. 128, 69 (2011)
         Mg : Obtained from the Peterson Research Group Website (tyr0.chem.wsu.edu/~kipeters) Feb. 2017
              B. P. Prascher, D. E. Woon, K. A. Peterson, T. H. Dunning, Jr., A. K. Wilson, Theor. Chem. Acc. 128, 69 (2011)
      Al-Ar : Obtained from the ccRepo (grant-hill.group.shef.ac.uk/ccrepo) Feb. 2017
              D. E. Woon, T. H. Dunning, Jr., J. Chem. Phys. 98, 1358 (1993)
      Sc-Zn : Obtained from the ccRepo (grant-hill.group.shef.ac.uk/ccrepo) Feb. 2017
              N. B. Balabanov, K. A. Peterson, J. Chem. Phys. 123, 064107 (2005)
              N. B. Balabanov, K. A. Peterson, J. Chem. Phys. 125, 074110 (2006)
      Ga-Kr : Obtained from the ccRepo (grant-hill.group.shef.ac.uk/ccrepo) Feb. 2017
              A. K. Wilson, D. E. Woon, K. A. Peterson, T. H. Dunning, Jr., J. Chem. Phys. 110, 7667 (1999)
     Ag, Au : Obtained from the Peterson Research Group Website (tyr0.chem.wsu.edu/~kipeters) Feb. 2017
              K. A. Peterson, C. Puzzarini, Theor. Chem. Acc. 114, 283 (2005)

================================================================================
                                        WARNINGS
                       Please study these warnings very carefully!
================================================================================


WARNING: The frozen-core approximation for MP2-gradient calculations is turned on by default.

INFO   : the flag for use of LIBINT has been found!

----- Orbital basis set information -----
Your calculation utilizes the basis: aug-cc-pVTZ 
    H, B-Ne : Obtained from the ccRepo (grant-hill.group.shef.ac.uk/ccrepo) Feb. 2017
              R. A. Kendall, T. H. Dunning, Jr., R. J. Harrison, J. Chem. Phys. 96, 6796 (1992)
         He : Obtained from the ccRepo (grant-hill.group.shef.ac.uk/ccrepo) Feb. 2017
              D. E. Woon, T. H. Dunning, Jr., J. Chem. Phys. 100, 2975 (1994)
  Li-Be, Na : Obtained from the ccRepo (grant-hill.group.shef.ac.uk/ccrepo) Feb. 2017
              B. P. Prascher, D. E. Woon, K. A. Peterson, T. H. Dunning, Jr., A. K. Wilson, Theor. Chem. Acc. 128, 69 (2011)
         Mg : Obtained from the Peterson Research Group Website (tyr0.chem.wsu.edu/~kipeters) Feb. 2017
              B. P. Prascher, D. E. Woon, K. A. Peterson, T. H. Dunning, Jr., A. K. Wilson, Theor. Chem. Acc. 128, 69 (2011)
      Al-Ar : Obtained from the ccRepo (grant-hill.group.shef.ac.uk/ccrepo) Feb. 2017
              D. E. Woon, T. H. Dunning, Jr., J. Chem. Phys. 98, 1358 (1993)
      Sc-Zn : Obtained from the ccRepo (grant-hill.group.shef.ac.uk/ccrepo) Feb. 2017
              N. B. Balabanov, K. A. Peterson, J. Chem. Phys. 123, 064107 (2005)
              N. B. Balabanov, K. A. Peterson, J. Chem. Phys. 125, 074110 (2006)
      Ga-Kr : Obtained from the ccRepo (grant-hill.group.shef.ac.uk/ccrepo) Feb. 2017
              A. K. Wilson, D. E. Woon, K. A. Peterson, T. H. Dunning, Jr., J. Chem. Phys. 110, 7667 (1999)
     Ag, Au : Obtained from the Peterson Research Group Website (tyr0.chem.wsu.edu/~kipeters) Feb. 2017
              K. A. Peterson, C. Puzzarini, Theor. Chem. Acc. 114, 283 (2005)

================================================================================
                                        WARNINGS
                       Please study these warnings very carefully!
================================================================================


WARNING: The frozen-core approximation for MP2-gradient calculations is turned on by default.

INFO   : the flag for use of LIBINT has been found!

----- Orbital basis set information -----
Your calculation utilizes the basis: aug-cc-pVTZ 
    H, B-Ne : Obtained from the ccRepo (grant-hill.group.shef.ac.uk/ccrepo) Feb. 2017
              R. A. Kendall, T. H. Dunning, Jr., R. J. Harrison, J. Chem. Phys. 96, 6796 (1992)
         He : Obtained from the ccRepo (grant-hill.group.shef.ac.uk/ccrepo) Feb. 2017
              D. E. Woon, T. H. Dunning, Jr., J. Chem. Phys. 100, 2975 (1994)
  Li-Be, Na : Obtained from the ccRepo (grant-hill.group.shef.ac.uk/ccrepo) Feb. 2017
              B. P. Prascher, D. E. Woon, K. A. Peterson, T. H. Dunning, Jr., A. K. Wilson, Theor. Chem. Acc. 128, 69 (2011)
         Mg : Obtained from the Peterson Research Group Website (tyr0.chem.wsu.edu/~kipeters) Feb. 2017
              B. P. Prascher, D. E. Woon, K. A. Peterson, T. H. Dunning, Jr., A. K. Wilson, Theor. Chem. Acc. 128, 69 (2011)
      Al-Ar : Obtained from the ccRepo (grant-hill.group.shef.ac.uk/ccrepo) Feb. 2017
              D. E. Woon, T. H. Dunning, Jr., J. Chem. Phys. 98, 1358 (1993)
      Sc-Zn : Obtained from the ccRepo (grant-hill.group.shef.ac.uk/ccrepo) Feb. 2017
              N. B. Balabanov, K. A. Peterson, J. Chem. Phys. 123, 064107 (2005)
              N. B. Balabanov, K. A. Peterson, J. Chem. Phys. 125, 074110 (2006)
      Ga-Kr : Obtained from the ccRepo (grant-hill.group.shef.ac.uk/ccrepo) Feb. 2017
              A. K. Wilson, D. E. Woon, K. A. Peterson, T. H. Dunning, Jr., J. Chem. Phys. 110, 7667 (1999)
     Ag, Au : Obtained from the Peterson Research Group Website (tyr0.chem.wsu.edu/~kipeters) Feb. 2017
              K. A. Peterson, C. Puzzarini, Theor. Chem. Acc. 114, 283 (2005)

================================================================================
                                        WARNINGS
                       Please study these warnings very carefully!
================================================================================


WARNING: The frozen-core approximation for MP2-gradient calculations is turned on by default.

INFO   : the flag for use of LIBINT has been found!

----- Orbital basis set information -----
Your calculation utilizes the basis: aug-cc-pVTZ 
    H, B-Ne : Obtained from the ccRepo (grant-hill.group.shef.ac.uk/ccrepo) Feb. 2017
              R. A. Kendall, T. H. Dunning, Jr., R. J. Harrison, J. Chem. Phys. 96, 6796 (1992)
         He : Obtained from the ccRepo (grant-hill.group.shef.ac.uk/ccrepo) Feb. 2017
              D. E. Woon, T. H. Dunning, Jr., J. Chem. Phys. 100, 2975 (1994)
  Li-Be, Na : Obtained from the ccRepo (grant-hill.group.shef.ac.uk/ccrepo) Feb. 2017
              B. P. Prascher, D. E. Woon, K. A. Peterson, T. H. Dunning, Jr., A. K. Wilson, Theor. Chem. Acc. 128, 69 (2011)
         Mg : Obtained from the Peterson Research Group Website (tyr0.chem.wsu.edu/~kipeters) Feb. 2017
              B. P. Prascher, D. E. Woon, K. A. Peterson, T. H. Dunning, Jr., A. K. Wilson, Theor. Chem. Acc. 128, 69 (2011)
      Al-Ar : Obtained from the ccRepo (grant-hill.group.shef.ac.uk/ccrepo) Feb. 2017
              D. E. Woon, T. H. Dunning, Jr., J. Chem. Phys. 98, 1358 (1993)
      Sc-Zn : Obtained from the ccRepo (grant-hill.group.shef.ac.uk/ccrepo) Feb. 2017
              N. B. Balabanov, K. A. Peterson, J. Chem. Phys. 123, 064107 (2005)
              N. B. Balabanov, K. A. Peterson, J. Chem. Phys. 125, 074110 (2006)
      Ga-Kr : Obtained from the ccRepo (grant-hill.group.shef.ac.uk/ccrepo) Feb. 2017
              A. K. Wilson, D. E. Woon, K. A. Peterson, T. H. Dunning, Jr., J. Chem. Phys. 110, 7667 (1999)
     Ag, Au : Obtained from the Peterson Research Group Website (tyr0.chem.wsu.edu/~kipeters) Feb. 2017
              K. A. Peterson, C. Puzzarini, Theor. Chem. Acc. 114, 283 (2005)

================================================================================
                                        WARNINGS
                       Please study these warnings very carefully!
================================================================================


WARNING: The frozen-core approximation for MP2-gradient calculations is turned on by default.

INFO   : the flag for use of LIBINT has been found!

----- Orbital basis set information -----
Your calculation utilizes the basis: aug-cc-pVTZ 
    H, B-Ne : Obtained from the ccRepo (grant-hill.group.shef.ac.uk/ccrepo) Feb. 2017
              R. A. Kendall, T. H. Dunning, Jr., R. J. Harrison, J. Chem. Phys. 96, 6796 (1992)
         He : Obtained from the ccRepo (grant-hill.group.shef.ac.uk/ccrepo) Feb. 2017
              D. E. Woon, T. H. Dunning, Jr., J. Chem. Phys. 100, 2975 (1994)
  Li-Be, Na : Obtained from the ccRepo (grant-hill.group.shef.ac.uk/ccrepo) Feb. 2017
              B. P. Prascher, D. E. Woon, K. A. Peterson, T. H. Dunning, Jr., A. K. Wilson, Theor. Chem. Acc. 128, 69 (2011)
         Mg : Obtained from the Peterson Research Group Website (tyr0.chem.wsu.edu/~kipeters) Feb. 2017
              B. P. Prascher, D. E. Woon, K. A. Peterson, T. H. Dunning, Jr., A. K. Wilson, Theor. Chem. Acc. 128, 69 (2011)
      Al-Ar : Obtained from the ccRepo (grant-hill.group.shef.ac.uk/ccrepo) Feb. 2017
              D. E. Woon, T. H. Dunning, Jr., J. Chem. Phys. 98, 1358 (1993)
      Sc-Zn : Obtained from the ccRepo (grant-hill.group.shef.ac.uk/ccrepo) Feb. 2017
              N. B. Balabanov, K. A. Peterson, J. Chem. Phys. 123, 064107 (2005)
              N. B. Balabanov, K. A. Peterson, J. Chem. Phys. 125, 074110 (2006)
      Ga-Kr : Obtained from the ccRepo (grant-hill.group.shef.ac.uk/ccrepo) Feb. 2017
              A. K. Wilson, D. E. Woon, K. A. Peterson, T. H. Dunning, Jr., J. Chem. Phys. 110, 7667 (1999)
     Ag, Au : Obtained from the Peterson Research Group Website (tyr0.chem.wsu.edu/~kipeters) Feb. 2017
              K. A. Peterson, C. Puzzarini, Theor. Chem. Acc. 114, 283 (2005)

================================================================================
                                        WARNINGS
                       Please study these warnings very carefully!
================================================================================


WARNING: The frozen-core approximation for MP2-gradient calculations is turned on by default.

INFO   : the flag for use of LIBINT has been found!

----- Orbital basis set information -----
Your calculation utilizes the basis: aug-cc-pVTZ 
    H, B-Ne : Obtained from the ccRepo (grant-hill.group.shef.ac.uk/ccrepo) Feb. 2017
              R. A. Kendall, T. H. Dunning, Jr., R. J. Harrison, J. Chem. Phys. 96, 6796 (1992)
         He : Obtained from the ccRepo (grant-hill.group.shef.ac.uk/ccrepo) Feb. 2017
              D. E. Woon, T. H. Dunning, Jr., J. Chem. Phys. 100, 2975 (1994)
  Li-Be, Na : Obtained from the ccRepo (grant-hill.group.shef.ac.uk/ccrepo) Feb. 2017
              B. P. Prascher, D. E. Woon, K. A. Peterson, T. H. Dunning, Jr., A. K. Wilson, Theor. Chem. Acc. 128, 69 (2011)
         Mg : Obtained from the Peterson Research Group Website (tyr0.chem.wsu.edu/~kipeters) Feb. 2017
              B. P. Prascher, D. E. Woon, K. A. Peterson, T. H. Dunning, Jr., A. K. Wilson, Theor. Chem. Acc. 128, 69 (2011)
      Al-Ar : Obtained from the ccRepo (grant-hill.group.shef.ac.uk/ccrepo) Feb. 2017
              D. E. Woon, T. H. Dunning, Jr., J. Chem. Phys. 98, 1358 (1993)
      Sc-Zn : Obtained from the ccRepo (grant-hill.group.shef.ac.uk/ccrepo) Feb. 2017
              N. B. Balabanov, K. A. Peterson, J. Chem. Phys. 123, 064107 (2005)
              N. B. Balabanov, K. A. Peterson, J. Chem. Phys. 125, 074110 (2006)
      Ga-Kr : Obtained from the ccRepo (grant-hill.group.shef.ac.uk/ccrepo) Feb. 2017
              A. K. Wilson, D. E. Woon, K. A. Peterson, T. H. Dunning, Jr., J. Chem. Phys. 110, 7667 (1999)
     Ag, Au : Obtained from the Peterson Research Group Website (tyr0.chem.wsu.edu/~kipeters) Feb. 2017
              K. A. Peterson, C. Puzzarini, Theor. Chem. Acc. 114, 283 (2005)

================================================================================
                                        WARNINGS
                       Please study these warnings very carefully!
================================================================================


WARNING: The frozen-core approximation for MP2-gradient calculations is turned on by default.

INFO   : the flag for use of LIBINT has been found!

----- Orbital basis set information -----
Your calculation utilizes the basis: aug-cc-pVTZ 
    H, B-Ne : Obtained from the ccRepo (grant-hill.group.shef.ac.uk/ccrepo) Feb. 2017
              R. A. Kendall, T. H. Dunning, Jr., R. J. Harrison, J. Chem. Phys. 96, 6796 (1992)
         He : Obtained from the ccRepo (grant-hill.group.shef.ac.uk/ccrepo) Feb. 2017
              D. E. Woon, T. H. Dunning, Jr., J. Chem. Phys. 100, 2975 (1994)
  Li-Be, Na : Obtained from the ccRepo (grant-hill.group.shef.ac.uk/ccrepo) Feb. 2017
              B. P. Prascher, D. E. Woon, K. A. Peterson, T. H. Dunning, Jr., A. K. Wilson, Theor. Chem. Acc. 128, 69 (2011)
         Mg : Obtained from the Peterson Research Group Website (tyr0.chem.wsu.edu/~kipeters) Feb. 2017
              B. P. Prascher, D. E. Woon, K. A. Peterson, T. H. Dunning, Jr., A. K. Wilson, Theor. Chem. Acc. 128, 69 (2011)
      Al-Ar : Obtained from the ccRepo (grant-hill.group.shef.ac.uk/ccrepo) Feb. 2017
              D. E. Woon, T. H. Dunning, Jr., J. Chem. Phys. 98, 1358 (1993)
      Sc-Zn : Obtained from the ccRepo (grant-hill.group.shef.ac.uk/ccrepo) Feb. 2017
              N. B. Balabanov, K. A. Peterson, J. Chem. Phys. 123, 064107 (2005)
              N. B. Balabanov, K. A. Peterson, J. Chem. Phys. 125, 074110 (2006)
      Ga-Kr : Obtained from the ccRepo (grant-hill.group.shef.ac.uk/ccrepo) Feb. 2017
              A. K. Wilson, D. E. Woon, K. A. Peterson, T. H. Dunning, Jr., J. Chem. Phys. 110, 7667 (1999)
     Ag, Au : Obtained from the Peterson Research Group Website (tyr0.chem.wsu.edu/~kipeters) Feb. 2017
              K. A. Peterson, C. Puzzarini, Theor. Chem. Acc. 114, 283 (2005)

================================================================================
                                        WARNINGS
                       Please study these warnings very carefully!
================================================================================


WARNING: The frozen-core approximation for MP2-gradient calculations is turned on by default.

INFO   : the flag for use of LIBINT has been found!

----- Orbital basis set information -----
Your calculation utilizes the basis: aug-cc-pVTZ 
    H, B-Ne : Obtained from the ccRepo (grant-hill.group.shef.ac.uk/ccrepo) Feb. 2017
              R. A. Kendall, T. H. Dunning, Jr., R. J. Harrison, J. Chem. Phys. 96, 6796 (1992)
         He : Obtained from the ccRepo (grant-hill.group.shef.ac.uk/ccrepo) Feb. 2017
              D. E. Woon, T. H. Dunning, Jr., J. Chem. Phys. 100, 2975 (1994)
  Li-Be, Na : Obtained from the ccRepo (grant-hill.group.shef.ac.uk/ccrepo) Feb. 2017
              B. P. Prascher, D. E. Woon, K. A. Peterson, T. H. Dunning, Jr., A. K. Wilson, Theor. Chem. Acc. 128, 69 (2011)
         Mg : Obtained from the Peterson Research Group Website (tyr0.chem.wsu.edu/~kipeters) Feb. 2017
              B. P. Prascher, D. E. Woon, K. A. Peterson, T. H. Dunning, Jr., A. K. Wilson, Theor. Chem. Acc. 128, 69 (2011)
      Al-Ar : Obtained from the ccRepo (grant-hill.group.shef.ac.uk/ccrepo) Feb. 2017
              D. E. Woon, T. H. Dunning, Jr., J. Chem. Phys. 98, 1358 (1993)
      Sc-Zn : Obtained from the ccRepo (grant-hill.group.shef.ac.uk/ccrepo) Feb. 2017
              N. B. Balabanov, K. A. Peterson, J. Chem. Phys. 123, 064107 (2005)
              N. B. Balabanov, K. A. Peterson, J. Chem. Phys. 125, 074110 (2006)
      Ga-Kr : Obtained from the ccRepo (grant-hill.group.shef.ac.uk/ccrepo) Feb. 2017
              A. K. Wilson, D. E. Woon, K. A. Peterson, T. H. Dunning, Jr., J. Chem. Phys. 110, 7667 (1999)
     Ag, Au : Obtained from the Peterson Research Group Website (tyr0.chem.wsu.edu/~kipeters) Feb. 2017
              K. A. Peterson, C. Puzzarini, Theor. Chem. Acc. 114, 283 (2005)

================================================================================
                                        WARNINGS
                       Please study these warnings very carefully!
================================================================================


WARNING: The frozen-core approximation for MP2-gradient calculations is turned on by default.

INFO   : the flag for use of LIBINT has been found!

----- Orbital basis set information -----
Your calculation utilizes the basis: aug-cc-pVTZ 
    H, B-Ne : Obtained from the ccRepo (grant-hill.group.shef.ac.uk/ccrepo) Feb. 2017
              R. A. Kendall, T. H. Dunning, Jr., R. J. Harrison, J. Chem. Phys. 96, 6796 (1992)
         He : Obtained from the ccRepo (grant-hill.group.shef.ac.uk/ccrepo) Feb. 2017
              D. E. Woon, T. H. Dunning, Jr., J. Chem. Phys. 100, 2975 (1994)
  Li-Be, Na : Obtained from the ccRepo (grant-hill.group.shef.ac.uk/ccrepo) Feb. 2017
              B. P. Prascher, D. E. Woon, K. A. Peterson, T. H. Dunning, Jr., A. K. Wilson, Theor. Chem. Acc. 128, 69 (2011)
         Mg : Obtained from the Peterson Research Group Website (tyr0.chem.wsu.edu/~kipeters) Feb. 2017
              B. P. Prascher, D. E. Woon, K. A. Peterson, T. H. Dunning, Jr., A. K. Wilson, Theor. Chem. Acc. 128, 69 (2011)
      Al-Ar : Obtained from the ccRepo (grant-hill.group.shef.ac.uk/ccrepo) Feb. 2017
              D. E. Woon, T. H. Dunning, Jr., J. Chem. Phys. 98, 1358 (1993)
      Sc-Zn : Obtained from the ccRepo (grant-hill.group.shef.ac.uk/ccrepo) Feb. 2017
              N. B. Balabanov, K. A. Peterson, J. Chem. Phys. 123, 064107 (2005)
              N. B. Balabanov, K. A. Peterson, J. Chem. Phys. 125, 074110 (2006)
      Ga-Kr : Obtained from the ccRepo (grant-hill.group.shef.ac.uk/ccrepo) Feb. 2017
              A. K. Wilson, D. E. Woon, K. A. Peterson, T. H. Dunning, Jr., J. Chem. Phys. 110, 7667 (1999)
     Ag, Au : Obtained from the Peterson Research Group Website (tyr0.chem.wsu.edu/~kipeters) Feb. 2017
              K. A. Peterson, C. Puzzarini, Theor. Chem. Acc. 114, 283 (2005)

================================================================================
                                        WARNINGS
                       Please study these warnings very carefully!
================================================================================


WARNING: The frozen-core approximation for MP2-gradient calculations is turned on by default.

INFO   : the flag for use of LIBINT has been found!

----- Orbital basis set information -----
Your calculation utilizes the basis: aug-cc-pVTZ 
    H, B-Ne : Obtained from the ccRepo (grant-hill.group.shef.ac.uk/ccrepo) Feb. 2017
              R. A. Kendall, T. H. Dunning, Jr., R. J. Harrison, J. Chem. Phys. 96, 6796 (1992)
         He : Obtained from the ccRepo (grant-hill.group.shef.ac.uk/ccrepo) Feb. 2017
              D. E. Woon, T. H. Dunning, Jr., J. Chem. Phys. 100, 2975 (1994)
  Li-Be, Na : Obtained from the ccRepo (grant-hill.group.shef.ac.uk/ccrepo) Feb. 2017
              B. P. Prascher, D. E. Woon, K. A. Peterson, T. H. Dunning, Jr., A. K. Wilson, Theor. Chem. Acc. 128, 69 (2011)
         Mg : Obtained from the Peterson Research Group Website (tyr0.chem.wsu.edu/~kipeters) Feb. 2017
              B. P. Prascher, D. E. Woon, K. A. Peterson, T. H. Dunning, Jr., A. K. Wilson, Theor. Chem. Acc. 128, 69 (2011)
      Al-Ar : Obtained from the ccRepo (grant-hill.group.shef.ac.uk/ccrepo) Feb. 2017
              D. E. Woon, T. H. Dunning, Jr., J. Chem. Phys. 98, 1358 (1993)
      Sc-Zn : Obtained from the ccRepo (grant-hill.group.shef.ac.uk/ccrepo) Feb. 2017
              N. B. Balabanov, K. A. Peterson, J. Chem. Phys. 123, 064107 (2005)
              N. B. Balabanov, K. A. Peterson, J. Chem. Phys. 125, 074110 (2006)
      Ga-Kr : Obtained from the ccRepo (grant-hill.group.shef.ac.uk/ccrepo) Feb. 2017
              A. K. Wilson, D. E. Woon, K. A. Peterson, T. H. Dunning, Jr., J. Chem. Phys. 110, 7667 (1999)
     Ag, Au : Obtained from the Peterson Research Group Website (tyr0.chem.wsu.edu/~kipeters) Feb. 2017
              K. A. Peterson, C. Puzzarini, Theor. Chem. Acc. 114, 283 (2005)

================================================================================
                                        WARNINGS
                       Please study these warnings very carefully!
================================================================================


WARNING: The frozen-core approximation for MP2-gradient calculations is turned on by default.

INFO   : the flag for use of LIBINT has been found!

----- Orbital basis set information -----
Your calculation utilizes the basis: aug-cc-pVTZ 
    H, B-Ne : Obtained from the ccRepo (grant-hill.group.shef.ac.uk/ccrepo) Feb. 2017
              R. A. Kendall, T. H. Dunning, Jr., R. J. Harrison, J. Chem. Phys. 96, 6796 (1992)
         He : Obtained from the ccRepo (grant-hill.group.shef.ac.uk/ccrepo) Feb. 2017
              D. E. Woon, T. H. Dunning, Jr., J. Chem. Phys. 100, 2975 (1994)
  Li-Be, Na : Obtained from the ccRepo (grant-hill.group.shef.ac.uk/ccrepo) Feb. 2017
              B. P. Prascher, D. E. Woon, K. A. Peterson, T. H. Dunning, Jr., A. K. Wilson, Theor. Chem. Acc. 128, 69 (2011)
         Mg : Obtained from the Peterson Research Group Website (tyr0.chem.wsu.edu/~kipeters) Feb. 2017
              B. P. Prascher, D. E. Woon, K. A. Peterson, T. H. Dunning, Jr., A. K. Wilson, Theor. Chem. Acc. 128, 69 (2011)
      Al-Ar : Obtained from the ccRepo (grant-hill.group.shef.ac.uk/ccrepo) Feb. 2017
              D. E. Woon, T. H. Dunning, Jr., J. Chem. Phys. 98, 1358 (1993)
      Sc-Zn : Obtained from the ccRepo (grant-hill.group.shef.ac.uk/ccrepo) Feb. 2017
              N. B. Balabanov, K. A. Peterson, J. Chem. Phys. 123, 064107 (2005)
              N. B. Balabanov, K. A. Peterson, J. Chem. Phys. 125, 074110 (2006)
      Ga-Kr : Obtained from the ccRepo (grant-hill.group.shef.ac.uk/ccrepo) Feb. 2017
              A. K. Wilson, D. E. Woon, K. A. Peterson, T. H. Dunning, Jr., J. Chem. Phys. 110, 7667 (1999)
     Ag, Au : Obtained from the Peterson Research Group Website (tyr0.chem.wsu.edu/~kipeters) Feb. 2017
              K. A. Peterson, C. Puzzarini, Theor. Chem. Acc. 114, 283 (2005)

================================================================================
                                        WARNINGS
                       Please study these warnings very carefully!
================================================================================


WARNING: The frozen-core approximation for MP2-gradient calculations is turned on by default.

INFO   : the flag for use of LIBINT has been found!

----- Orbital basis set information -----
Your calculation utilizes the basis: aug-cc-pVTZ 
    H, B-Ne : Obtained from the ccRepo (grant-hill.group.shef.ac.uk/ccrepo) Feb. 2017
              R. A. Kendall, T. H. Dunning, Jr., R. J. Harrison, J. Chem. Phys. 96, 6796 (1992)
         He : Obtained from the ccRepo (grant-hill.group.shef.ac.uk/ccrepo) Feb. 2017
              D. E. Woon, T. H. Dunning, Jr., J. Chem. Phys. 100, 2975 (1994)
  Li-Be, Na : Obtained from the ccRepo (grant-hill.group.shef.ac.uk/ccrepo) Feb. 2017
              B. P. Prascher, D. E. Woon, K. A. Peterson, T. H. Dunning, Jr., A. K. Wilson, Theor. Chem. Acc. 128, 69 (2011)
         Mg : Obtained from the Peterson Research Group Website (tyr0.chem.wsu.edu/~kipeters) Feb. 2017
              B. P. Prascher, D. E. Woon, K. A. Peterson, T. H. Dunning, Jr., A. K. Wilson, Theor. Chem. Acc. 128, 69 (2011)
      Al-Ar : Obtained from the ccRepo (grant-hill.group.shef.ac.uk/ccrepo) Feb. 2017
              D. E. Woon, T. H. Dunning, Jr., J. Chem. Phys. 98, 1358 (1993)
      Sc-Zn : Obtained from the ccRepo (grant-hill.group.shef.ac.uk/ccrepo) Feb. 2017
              N. B. Balabanov, K. A. Peterson, J. Chem. Phys. 123, 064107 (2005)
              N. B. Balabanov, K. A. Peterson, J. Chem. Phys. 125, 074110 (2006)
      Ga-Kr : Obtained from the ccRepo (grant-hill.group.shef.ac.uk/ccrepo) Feb. 2017
              A. K. Wilson, D. E. Woon, K. A. Peterson, T. H. Dunning, Jr., J. Chem. Phys. 110, 7667 (1999)
     Ag, Au : Obtained from the Peterson Research Group Website (tyr0.chem.wsu.edu/~kipeters) Feb. 2017
              K. A. Peterson, C. Puzzarini, Theor. Chem. Acc. 114, 283 (2005)

================================================================================
                                        WARNINGS
                       Please study these warnings very carefully!
================================================================================


WARNING: The frozen-core approximation for MP2-gradient calculations is turned on by default.

INFO   : the flag for use of LIBINT has been found!

----- Orbital basis set information -----
Your calculation utilizes the basis: aug-cc-pVTZ 
    H, B-Ne : Obtained from the ccRepo (grant-hill.group.shef.ac.uk/ccrepo) Feb. 2017
              R. A. Kendall, T. H. Dunning, Jr., R. J. Harrison, J. Chem. Phys. 96, 6796 (1992)
         He : Obtained from the ccRepo (grant-hill.group.shef.ac.uk/ccrepo) Feb. 2017
              D. E. Woon, T. H. Dunning, Jr., J. Chem. Phys. 100, 2975 (1994)
  Li-Be, Na : Obtained from the ccRepo (grant-hill.group.shef.ac.uk/ccrepo) Feb. 2017
              B. P. Prascher, D. E. Woon, K. A. Peterson, T. H. Dunning, Jr., A. K. Wilson, Theor. Chem. Acc. 128, 69 (2011)
         Mg : Obtained from the Peterson Research Group Website (tyr0.chem.wsu.edu/~kipeters) Feb. 2017
              B. P. Prascher, D. E. Woon, K. A. Peterson, T. H. Dunning, Jr., A. K. Wilson, Theor. Chem. Acc. 128, 69 (2011)
      Al-Ar : Obtained from the ccRepo (grant-hill.group.shef.ac.uk/ccrepo) Feb. 2017
              D. E. Woon, T. H. Dunning, Jr., J. Chem. Phys. 98, 1358 (1993)
      Sc-Zn : Obtained from the ccRepo (grant-hill.group.shef.ac.uk/ccrepo) Feb. 2017
              N. B. Balabanov, K. A. Peterson, J. Chem. Phys. 123, 064107 (2005)
              N. B. Balabanov, K. A. Peterson, J. Chem. Phys. 125, 074110 (2006)
      Ga-Kr : Obtained from the ccRepo (grant-hill.group.shef.ac.uk/ccrepo) Feb. 2017
              A. K. Wilson, D. E. Woon, K. A. Peterson, T. H. Dunning, Jr., J. Chem. Phys. 110, 7667 (1999)
     Ag, Au : Obtained from the Peterson Research Group Website (tyr0.chem.wsu.edu/~kipeters) Feb. 2017
              K. A. Peterson, C. Puzzarini, Theor. Chem. Acc. 114, 283 (2005)

================================================================================
                                        WARNINGS
                       Please study these warnings very carefully!
================================================================================


WARNING: The frozen-core approximation for MP2-gradient calculations is turned on by default.

INFO   : the flag for use of LIBINT has been found!

----- Orbital basis set information -----
Your calculation utilizes the basis: aug-cc-pVTZ 
    H, B-Ne : Obtained from the ccRepo (grant-hill.group.shef.ac.uk/ccrepo) Feb. 2017
              R. A. Kendall, T. H. Dunning, Jr., R. J. Harrison, J. Chem. Phys. 96, 6796 (1992)
         He : Obtained from the ccRepo (grant-hill.group.shef.ac.uk/ccrepo) Feb. 2017
              D. E. Woon, T. H. Dunning, Jr., J. Chem. Phys. 100, 2975 (1994)
  Li-Be, Na : Obtained from the ccRepo (grant-hill.group.shef.ac.uk/ccrepo) Feb. 2017
              B. P. Prascher, D. E. Woon, K. A. Peterson, T. H. Dunning, Jr., A. K. Wilson, Theor. Chem. Acc. 128, 69 (2011)
         Mg : Obtained from the Peterson Research Group Website (tyr0.chem.wsu.edu/~kipeters) Feb. 2017
              B. P. Prascher, D. E. Woon, K. A. Peterson, T. H. Dunning, Jr., A. K. Wilson, Theor. Chem. Acc. 128, 69 (2011)
      Al-Ar : Obtained from the ccRepo (grant-hill.group.shef.ac.uk/ccrepo) Feb. 2017
              D. E. Woon, T. H. Dunning, Jr., J. Chem. Phys. 98, 1358 (1993)
      Sc-Zn : Obtained from the ccRepo (grant-hill.group.shef.ac.uk/ccrepo) Feb. 2017
              N. B. Balabanov, K. A. Peterson, J. Chem. Phys. 123, 064107 (2005)
              N. B. Balabanov, K. A. Peterson, J. Chem. Phys. 125, 074110 (2006)
      Ga-Kr : Obtained from the ccRepo (grant-hill.group.shef.ac.uk/ccrepo) Feb. 2017
              A. K. Wilson, D. E. Woon, K. A. Peterson, T. H. Dunning, Jr., J. Chem. Phys. 110, 7667 (1999)
     Ag, Au : Obtained from the Peterson Research Group Website (tyr0.chem.wsu.edu/~kipeters) Feb. 2017
              K. A. Peterson, C. Puzzarini, Theor. Chem. Acc. 114, 283 (2005)

================================================================================
                                        WARNINGS
                       Please study these warnings very carefully!
================================================================================


WARNING: The frozen-core approximation for MP2-gradient calculations is turned on by default.

INFO   : the flag for use of LIBINT has been found!

----- Orbital basis set information -----
Your calculation utilizes the basis: aug-cc-pVTZ 
    H, B-Ne : Obtained from the ccRepo (grant-hill.group.shef.ac.uk/ccrepo) Feb. 2017
              R. A. Kendall, T. H. Dunning, Jr., R. J. Harrison, J. Chem. Phys. 96, 6796 (1992)
         He : Obtained from the ccRepo (grant-hill.group.shef.ac.uk/ccrepo) Feb. 2017
              D. E. Woon, T. H. Dunning, Jr., J. Chem. Phys. 100, 2975 (1994)
  Li-Be, Na : Obtained from the ccRepo (grant-hill.group.shef.ac.uk/ccrepo) Feb. 2017
              B. P. Prascher, D. E. Woon, K. A. Peterson, T. H. Dunning, Jr., A. K. Wilson, Theor. Chem. Acc. 128, 69 (2011)
         Mg : Obtained from the Peterson Research Group Website (tyr0.chem.wsu.edu/~kipeters) Feb. 2017
              B. P. Prascher, D. E. Woon, K. A. Peterson, T. H. Dunning, Jr., A. K. Wilson, Theor. Chem. Acc. 128, 69 (2011)
      Al-Ar : Obtained from the ccRepo (grant-hill.group.shef.ac.uk/ccrepo) Feb. 2017
              D. E. Woon, T. H. Dunning, Jr., J. Chem. Phys. 98, 1358 (1993)
      Sc-Zn : Obtained from the ccRepo (grant-hill.group.shef.ac.uk/ccrepo) Feb. 2017
              N. B. Balabanov, K. A. Peterson, J. Chem. Phys. 123, 064107 (2005)
              N. B. Balabanov, K. A. Peterson, J. Chem. Phys. 125, 074110 (2006)
      Ga-Kr : Obtained from the ccRepo (grant-hill.group.shef.ac.uk/ccrepo) Feb. 2017
              A. K. Wilson, D. E. Woon, K. A. Peterson, T. H. Dunning, Jr., J. Chem. Phys. 110, 7667 (1999)
     Ag, Au : Obtained from the Peterson Research Group Website (tyr0.chem.wsu.edu/~kipeters) Feb. 2017
              K. A. Peterson, C. Puzzarini, Theor. Chem. Acc. 114, 283 (2005)

================================================================================
                                        WARNINGS
                       Please study these warnings very carefully!
================================================================================


WARNING: The frozen-core approximation for MP2-gradient calculations is turned on by default.

INFO   : the flag for use of LIBINT has been found!

----- Orbital basis set information -----
Your calculation utilizes the basis: aug-cc-pVTZ 
    H, B-Ne : Obtained from the ccRepo (grant-hill.group.shef.ac.uk/ccrepo) Feb. 2017
              R. A. Kendall, T. H. Dunning, Jr., R. J. Harrison, J. Chem. Phys. 96, 6796 (1992)
         He : Obtained from the ccRepo (grant-hill.group.shef.ac.uk/ccrepo) Feb. 2017
              D. E. Woon, T. H. Dunning, Jr., J. Chem. Phys. 100, 2975 (1994)
  Li-Be, Na : Obtained from the ccRepo (grant-hill.group.shef.ac.uk/ccrepo) Feb. 2017
              B. P. Prascher, D. E. Woon, K. A. Peterson, T. H. Dunning, Jr., A. K. Wilson, Theor. Chem. Acc. 128, 69 (2011)
         Mg : Obtained from the Peterson Research Group Website (tyr0.chem.wsu.edu/~kipeters) Feb. 2017
              B. P. Prascher, D. E. Woon, K. A. Peterson, T. H. Dunning, Jr., A. K. Wilson, Theor. Chem. Acc. 128, 69 (2011)
      Al-Ar : Obtained from the ccRepo (grant-hill.group.shef.ac.uk/ccrepo) Feb. 2017
              D. E. Woon, T. H. Dunning, Jr., J. Chem. Phys. 98, 1358 (1993)
      Sc-Zn : Obtained from the ccRepo (grant-hill.group.shef.ac.uk/ccrepo) Feb. 2017
              N. B. Balabanov, K. A. Peterson, J. Chem. Phys. 123, 064107 (2005)
              N. B. Balabanov, K. A. Peterson, J. Chem. Phys. 125, 074110 (2006)
      Ga-Kr : Obtained from the ccRepo (grant-hill.group.shef.ac.uk/ccrepo) Feb. 2017
              A. K. Wilson, D. E. Woon, K. A. Peterson, T. H. Dunning, Jr., J. Chem. Phys. 110, 7667 (1999)
     Ag, Au : Obtained from the Peterson Research Group Website (tyr0.chem.wsu.edu/~kipeters) Feb. 2017
              K. A. Peterson, C. Puzzarini, Theor. Chem. Acc. 114, 283 (2005)

================================================================================
                                        WARNINGS
                       Please study these warnings very carefully!
================================================================================


WARNING: The frozen-core approximation for MP2-gradient calculations is turned on by default.

INFO   : the flag for use of LIBINT has been found!

----- Orbital basis set information -----
Your calculation utilizes the basis: aug-cc-pVTZ 
    H, B-Ne : Obtained from the ccRepo (grant-hill.group.shef.ac.uk/ccrepo) Feb. 2017
              R. A. Kendall, T. H. Dunning, Jr., R. J. Harrison, J. Chem. Phys. 96, 6796 (1992)
         He : Obtained from the ccRepo (grant-hill.group.shef.ac.uk/ccrepo) Feb. 2017
              D. E. Woon, T. H. Dunning, Jr., J. Chem. Phys. 100, 2975 (1994)
  Li-Be, Na : Obtained from the ccRepo (grant-hill.group.shef.ac.uk/ccrepo) Feb. 2017
              B. P. Prascher, D. E. Woon, K. A. Peterson, T. H. Dunning, Jr., A. K. Wilson, Theor. Chem. Acc. 128, 69 (2011)
         Mg : Obtained from the Peterson Research Group Website (tyr0.chem.wsu.edu/~kipeters) Feb. 2017
              B. P. Prascher, D. E. Woon, K. A. Peterson, T. H. Dunning, Jr., A. K. Wilson, Theor. Chem. Acc. 128, 69 (2011)
      Al-Ar : Obtained from the ccRepo (grant-hill.group.shef.ac.uk/ccrepo) Feb. 2017
              D. E. Woon, T. H. Dunning, Jr., J. Chem. Phys. 98, 1358 (1993)
      Sc-Zn : Obtained from the ccRepo (grant-hill.group.shef.ac.uk/ccrepo) Feb. 2017
              N. B. Balabanov, K. A. Peterson, J. Chem. Phys. 123, 064107 (2005)
              N. B. Balabanov, K. A. Peterson, J. Chem. Phys. 125, 074110 (2006)
      Ga-Kr : Obtained from the ccRepo (grant-hill.group.shef.ac.uk/ccrepo) Feb. 2017
              A. K. Wilson, D. E. Woon, K. A. Peterson, T. H. Dunning, Jr., J. Chem. Phys. 110, 7667 (1999)
     Ag, Au : Obtained from the Peterson Research Group Website (tyr0.chem.wsu.edu/~kipeters) Feb. 2017
              K. A. Peterson, C. Puzzarini, Theor. Chem. Acc. 114, 283 (2005)

================================================================================
                                        WARNINGS
                       Please study these warnings very carefully!
================================================================================


WARNING: The frozen-core approximation for MP2-gradient calculations is turned on by default.

INFO   : the flag for use of LIBINT has been found!

----- Orbital basis set information -----
Your calculation utilizes the basis: aug-cc-pVTZ 
    H, B-Ne : Obtained from the ccRepo (grant-hill.group.shef.ac.uk/ccrepo) Feb. 2017
              R. A. Kendall, T. H. Dunning, Jr., R. J. Harrison, J. Chem. Phys. 96, 6796 (1992)
         He : Obtained from the ccRepo (grant-hill.group.shef.ac.uk/ccrepo) Feb. 2017
              D. E. Woon, T. H. Dunning, Jr., J. Chem. Phys. 100, 2975 (1994)
  Li-Be, Na : Obtained from the ccRepo (grant-hill.group.shef.ac.uk/ccrepo) Feb. 2017
              B. P. Prascher, D. E. Woon, K. A. Peterson, T. H. Dunning, Jr., A. K. Wilson, Theor. Chem. Acc. 128, 69 (2011)
         Mg : Obtained from the Peterson Research Group Website (tyr0.chem.wsu.edu/~kipeters) Feb. 2017
              B. P. Prascher, D. E. Woon, K. A. Peterson, T. H. Dunning, Jr., A. K. Wilson, Theor. Chem. Acc. 128, 69 (2011)
      Al-Ar : Obtained from the ccRepo (grant-hill.group.shef.ac.uk/ccrepo) Feb. 2017
              D. E. Woon, T. H. Dunning, Jr., J. Chem. Phys. 98, 1358 (1993)
      Sc-Zn : Obtained from the ccRepo (grant-hill.group.shef.ac.uk/ccrepo) Feb. 2017
              N. B. Balabanov, K. A. Peterson, J. Chem. Phys. 123, 064107 (2005)
              N. B. Balabanov, K. A. Peterson, J. Chem. Phys. 125, 074110 (2006)
      Ga-Kr : Obtained from the ccRepo (grant-hill.group.shef.ac.uk/ccrepo) Feb. 2017
              A. K. Wilson, D. E. Woon, K. A. Peterson, T. H. Dunning, Jr., J. Chem. Phys. 110, 7667 (1999)
     Ag, Au : Obtained from the Peterson Research Group Website (tyr0.chem.wsu.edu/~kipeters) Feb. 2017
              K. A. Peterson, C. Puzzarini, Theor. Chem. Acc. 114, 283 (2005)

================================================================================
                                        WARNINGS
                       Please study these warnings very carefully!
================================================================================


WARNING: The frozen-core approximation for MP2-gradient calculations is turned on by default.

INFO   : the flag for use of LIBINT has been found!

================================================================================
                                       INPUT FILE
================================================================================
NAME = 5h2o.temelso.etal.dset.2h2o-orca.engrad-mp2.augccpvtz-50.to.69.inp
|  1> # 5h2o.temelso.etal.dset.2h2o-orca.engrad-mp2.augccpvtz-50.to.69
|  2> ! MP2 aug-cc-pVTZ EnGrad TightSCF FrozenCore
|  3> 
|  4> %pal
|  5>     nprocs 12
|  6> end
|  7> 
|  8> %maxcore 8000
|  9> 
| 10> %scf
| 11>     ConvForced true
| 12> end
| 13> 
| 14> *xyz 0 1
| 15> O   1.424227087   0.104842537  -0.100102532
| 16> H   0.456727087  -0.064657463  -0.088902532
| 17> H   1.628027087   0.259442537  -1.031202532
| 18> O  -1.351872913  -0.114957463   0.092997468
| 19> H  -1.570672913   0.743742537   0.510597468
| 20> H  -1.662672913  -0.777957463   0.722297468
| 21> *
| 22> 
| 23> 
| 24> $new_job
| 25> 
| 26> # 5h2o.temelso.etal.dset.2h2o-orca.engrad-mp2.augccpvtz-50.to.69
| 27> ! MP2 aug-cc-pVTZ EnGrad TightSCF FrozenCore
| 28> 
| 29> %pal
| 30>     nprocs 12
| 31> end
| 32> 
| 33> %maxcore 8000
| 34> 
| 35> %scf
| 36>     ConvForced true
| 37> end
| 38> 
| 39> *xyz 0 1
| 40> O   1.452315922  -1.160451518  -0.720496597
| 41> H   0.484815922  -1.329951518  -0.709296597
| 42> H   1.656115922  -1.005851518  -1.651596597
| 43> O  -1.436584078   1.150448482   0.712703403
| 44> H  -1.916484078   1.379448482   1.518203403
| 45> H  -0.474184078   1.115148482   0.966403403
| 46> *
| 47> 
| 48> 
| 49> $new_job
| 50> 
| 51> # 5h2o.temelso.etal.dset.2h2o-orca.engrad-mp2.augccpvtz-50.to.69
| 52> ! MP2 aug-cc-pVTZ EnGrad TightSCF FrozenCore
| 53> 
| 54> %pal
| 55>     nprocs 12
| 56> end
| 57> 
| 58> %maxcore 8000
| 59> 
| 60> %scf
| 61>     ConvForced true
| 62> end
| 63> 
| 64> *xyz 0 1
| 65> O   0.124299310  -1.157710743  -0.722429366
| 66> H  -0.843200690  -1.327210743  -0.711229366
| 67> H   0.328099310  -1.003110743  -1.653529366
| 68> O  -0.094200690   1.165789257   0.839970634
| 69> H  -0.109800690   1.852089257   0.148870634
| 70> H   0.147099310   0.349989257   0.349970634
| 71> *
| 72> 
| 73> 
| 74> $new_job
| 75> 
| 76> # 5h2o.temelso.etal.dset.2h2o-orca.engrad-mp2.augccpvtz-50.to.69
| 77> ! MP2 aug-cc-pVTZ EnGrad TightSCF FrozenCore
| 78> 
| 79> %pal
| 80>     nprocs 12
| 81> end
| 82> 
| 83> %maxcore 8000
| 84> 
| 85> %scf
| 86>     ConvForced true
| 87> end
| 88> 
| 89> *xyz 0 1
| 90> O   0.763384665  -2.034099301   0.225456516
| 91> H  -0.204115335  -2.203599301   0.236656516
| 92> H   0.967184665  -1.879499301  -0.705643484
| 93> O  -0.671315335   2.004800699  -0.206843484
| 94> H  -0.785815335   2.952000699  -0.058443484
| 95> H  -1.438815335   1.596200699   0.231956516
| 96> *
| 97> 
| 98> 
| 99> $new_job
|100> 
|101> # 5h2o.temelso.etal.dset.2h2o-orca.engrad-mp2.augccpvtz-50.to.69
|102> ! MP2 aug-cc-pVTZ EnGrad TightSCF FrozenCore
|103> 
|104> %pal
|105>     nprocs 12
|106> end
|107> 
|108> %maxcore 8000
|109> 
|110> %scf
|111>     ConvForced true
|112> end
|113> 
|114> *xyz 0 1
|115> O   0.057717514  -1.276242568  -0.678963294
|116> H  -0.161082486  -0.417542568  -0.261363294
|117> H  -0.253082486  -1.939242568  -0.049663294
|118> O  -0.055082486   1.254457432   0.561136706
|119> H  -0.534982486   1.483457432   1.366636706
|120> H   0.907317514   1.219157432   0.814836706
|121> *
|122> 
|123> 
|124> $new_job
|125> 
|126> # 5h2o.temelso.etal.dset.2h2o-orca.engrad-mp2.augccpvtz-50.to.69
|127> ! MP2 aug-cc-pVTZ EnGrad TightSCF FrozenCore
|128> 
|129> %pal
|130>     nprocs 12
|131> end
|132> 
|133> %maxcore 8000
|134> 
|135> %scf
|136>     ConvForced true
|137> end
|138> 
|139> *xyz 0 1
|140> O  -1.270299098  -1.273501792  -0.680896064
|141> H  -1.489099098  -0.414801792  -0.263296064
|142> H  -1.581099098  -1.936501792  -0.051596064
|143> O   1.287300902   1.269798208   0.688403936
|144> H   1.271700902   1.956098208  -0.002696064
|145> H   1.528600902   0.453998208   0.198403936
|146> *
|147> 
|148> 
|149> $new_job
|150> 
|151> # 5h2o.temelso.etal.dset.2h2o-orca.engrad-mp2.augccpvtz-50.to.69
|152> ! MP2 aug-cc-pVTZ EnGrad TightSCF FrozenCore
|153> 
|154> %pal
|155>     nprocs 12
|156> end
|157> 
|158> %maxcore 8000
|159> 
|160> %scf
|161>     ConvForced true
|162> end
|163> 
|164> *xyz 0 1
|165> O  -0.631213743  -2.149890350   0.266989818
|166> H  -0.850013743  -1.291190350   0.684589818
|167> H  -0.942013743  -2.812890350   0.896289818
|168> O   0.710186257   2.108809650  -0.358410182
|169> H   0.595686257   3.056009650  -0.210010182
|170> H  -0.057313743   1.700209650   0.080389818
|171> *
|172> 
|173> 
|174> $new_job
|175> 
|176> # 5h2o.temelso.etal.dset.2h2o-orca.engrad-mp2.augccpvtz-50.to.69
|177> ! MP2 aug-cc-pVTZ EnGrad TightSCF FrozenCore
|178> 
|179> %pal
|180>     nprocs 12
|181> end
|182> 
|183> %maxcore 8000
|184> 
|185> %scf
|186>     ConvForced true
|187> end
|188> 
|189> *xyz 0 1
|190> O  -1.355010263  -0.008095847  -0.061190128
|191> H  -1.834910263   0.220904153   0.744309872
|192> H  -0.392610263  -0.043395847   0.192509872
|193> O   1.315389737   0.004504153   0.068009872
|194> H   1.299789737   0.690804153  -0.623090128
|195> H   1.556689737  -0.811295847  -0.421990128
|196> *
|197> 
|198> 
|199> $new_job
|200> 
|201> # 5h2o.temelso.etal.dset.2h2o-orca.engrad-mp2.augccpvtz-50.to.69
|202> ! MP2 aug-cc-pVTZ EnGrad TightSCF FrozenCore
|203> 
|204> %pal
|205>     nprocs 12
|206> end
|207> 
|208> %maxcore 8000
|209> 
|210> %scf
|211>     ConvForced true
|212> end
|213> 
|214> *xyz 0 1
|215> O  -0.715924908  -0.884484405   0.886695754
|216> H  -1.195824908  -0.655484405   1.692195754
|217> H   0.246475092  -0.919784405   1.140395754
|218> O   0.738275092   0.843515595  -0.978804246
|219> H   0.623775092   1.790715595  -0.830404246
|220> H  -0.029224908   0.434915595  -0.540004246
|221> *
|222> 
|223> 
|224> $new_job
|225> 
|226> # 5h2o.temelso.etal.dset.2h2o-orca.engrad-mp2.augccpvtz-50.to.69
|227> ! MP2 aug-cc-pVTZ EnGrad TightSCF FrozenCore
|228> 
|229> %pal
|230>     nprocs 12
|231> end
|232> 
|233> %maxcore 8000
|234> 
|235> %scf
|236>     ConvForced true
|237> end
|238> 
|239> *xyz 0 1
|240> O   0.626458480  -0.869143630   1.013962984
|241> H   0.610858480  -0.182843630   0.322862984
|242> H   0.867758480  -1.684943630   0.523962984
|243> O  -0.589741520   0.846256370  -0.980737016
|244> H  -0.704241520   1.793456370  -0.832337016
|245> H  -1.357241520   0.437656370  -0.541937016
|246> *
|247> 
|248> 
|249> $new_job
|250> 
|251> # 5h2o.temelso.etal.dset.2h2o-orca.engrad-mp2.augccpvtz-50.to.69
|252> ! MP2 aug-cc-pVTZ EnGrad TightSCF FrozenCore
|253> 
|254> %pal
|255>     nprocs 12
|256> end
|257> 
|258> %maxcore 8000
|259> 
|260> %scf
|261>     ConvForced true
|262> end
|263> 
|264> *xyz 0 1
|265> O   1.440958323  -0.017814411   0.164174051
|266> H   0.490758323  -0.114414411  -0.058025949
|267> H   1.644458323  -0.787114411   0.709874051
|268> O  -1.358841677   0.040785589  -0.229025949
|269> H  -1.511641677   0.981785589  -0.003625949
|270> H  -1.927141677  -0.444914411   0.381274051
|271> *
|272> 
|273> 
|274> $new_job
|275> 
|276> # 5h2o.temelso.etal.dset.2h2o-orca.engrad-mp2.augccpvtz-50.to.69
|277> ! MP2 aug-cc-pVTZ EnGrad TightSCF FrozenCore
|278> 
|279> %pal
|280>     nprocs 12
|281> end
|282> 
|283> %maxcore 8000
|284> 
|285> %scf
|286>     ConvForced true
|287> end
|288> 
|289> *xyz 0 1
|290> O   1.410259361  -1.352668819  -0.292092212
|291> H   0.460059361  -1.449268819  -0.514292212
|292> H   1.613759361  -2.121968819   0.253607788
|293> O  -1.387640639   1.387131181   0.212207788
|294> H  -1.948340639   1.748631181   0.909707788
|295> H  -0.484540639   1.275531181   0.619107788
|296> *
|297> 
|298> 
|299> $new_job
|300> 
|301> # 5h2o.temelso.etal.dset.2h2o-orca.engrad-mp2.augccpvtz-50.to.69
|302> ! MP2 aug-cc-pVTZ EnGrad TightSCF FrozenCore
|303> 
|304> %pal
|305>     nprocs 12
|306> end
|307> 
|308> %maxcore 8000
|309> 
|310> %scf
|311>     ConvForced true
|312> end
|313> 
|314> *xyz 0 1
|315> O   0.114377130  -1.243049957  -0.544882710
|316> H  -0.835822870  -1.339649957  -0.767082710
|317> H   0.317877130  -2.012349957   0.000817290
|318> O  -0.097022870   1.305250043   0.587317290
|319> H   0.095977130   1.936950043  -0.129282710
|320> H   0.146477130   0.427650043   0.221917290
|321> *
|322> 
|323> 
|324> $new_job
|325> 
|326> # 5h2o.temelso.etal.dset.2h2o-orca.engrad-mp2.augccpvtz-50.to.69
|327> ! MP2 aug-cc-pVTZ EnGrad TightSCF FrozenCore
|328> 
|329> %pal
|330>     nprocs 12
|331> end
|332> 
|333> %maxcore 8000
|334> 
|335> %scf
|336>     ConvForced true
|337> end
|338> 
|339> *xyz 0 1
|340> O   0.466181195  -2.173811690   0.489385839
|341> H  -0.484018805  -2.270411690   0.267185839
|342> H   0.669681195  -2.943111690   1.035085839
|343> O  -0.371918805   2.190388310  -0.533314161
|344> H  -0.439918805   3.126888310  -0.307614161
|345> H  -1.242118805   1.823488310  -0.297314161
|346> *
|347> 
|348> 
|349> $new_job
|350> 
|351> # 5h2o.temelso.etal.dset.2h2o-orca.engrad-mp2.augccpvtz-50.to.69
|352> ! MP2 aug-cc-pVTZ EnGrad TightSCF FrozenCore
|353> 
|354> %pal
|355>     nprocs 12
|356> end
|357> 
|358> %maxcore 8000
|359> 
|360> %scf
|361>     ConvForced true
|362> end
|363> 
|364> *xyz 0 1
|365> O   0.009643260  -1.360326345  -0.503019827
|366> H  -0.143156740  -0.419326345  -0.277619827
|367> H  -0.558656740  -1.846026345   0.107280173
|368> O   0.011543260   1.320873655   0.394480173
|369> H  -0.549156740   1.682373655   1.091980173
|370> H   0.914643260   1.209273655   0.801380173
|371> *
|372> 
|373> 
|374> $new_job
|375> 
|376> # 5h2o.temelso.etal.dset.2h2o-orca.engrad-mp2.augccpvtz-50.to.69
|377> ! MP2 aug-cc-pVTZ EnGrad TightSCF FrozenCore
|378> 
|379> %pal
|380>     nprocs 12
|381> end
|382> 
|383> %maxcore 8000
|384> 
|385> %scf
|386>     ConvForced true
|387> end
|388> 
|389> *xyz 0 1
|390> O  -1.286238971  -1.250707482  -0.755810325
|391> H  -1.439038971  -0.309707482  -0.530410325
|392> H  -1.854538971  -1.736407482  -0.145510325
|393> O   1.302161029   1.238992518   0.769589675
|394> H   1.495161029   1.870692518   0.052989675
|395> H   1.545661029   0.361392518   0.404189675
|396> *
|397> 
|398> 
|399> $new_job
|400> 
|401> # 5h2o.temelso.etal.dset.2h2o-orca.engrad-mp2.augccpvtz-50.to.69
|402> ! MP2 aug-cc-pVTZ EnGrad TightSCF FrozenCore
|403> 
|404> %pal
|405>     nprocs 12
|406> end
|407> 
|408> %maxcore 8000
|409> 
|410> %scf
|411>     ConvForced true
|412> end
|413> 
|414> *xyz 0 1
|415> O  -0.934434906  -2.181469216   0.278458225
|416> H  -1.087234906  -1.240469216   0.503858225
|417> H  -1.502734906  -2.667169216   0.888758225
|418> O   1.027265094   2.124130784  -0.351041775
|419> H   0.959265094   3.060630784  -0.125341775
|420> H   0.157065094   1.757230784  -0.115041775
|421> *
|422> 
|423> 
|424> $new_job
|425> 
|426> # 5h2o.temelso.etal.dset.2h2o-orca.engrad-mp2.augccpvtz-50.to.69
|427> ! MP2 aug-cc-pVTZ EnGrad TightSCF FrozenCore
|428> 
|429> %pal
|430>     nprocs 12
|431> end
|432> 
|433> %maxcore 8000
|434> 
|435> %scf
|436>     ConvForced true
|437> end
|438> 
|439> *xyz 0 1
|440> O  -1.315037933   0.095638109  -0.314576588
|441> H  -1.875737933   0.457138109   0.382923412
|442> H  -0.411937933  -0.015961891   0.092323412
|443> O   1.271462067  -0.095861891   0.313323412
|444> H   1.464462067   0.535838109  -0.403276588
|445> H   1.514962067  -0.973461891  -0.052076588
|446> *
|447> 
|448> 
|449> $new_job
|450> 
|451> # 5h2o.temelso.etal.dset.2h2o-orca.engrad-mp2.augccpvtz-50.to.69
|452> ! MP2 aug-cc-pVTZ EnGrad TightSCF FrozenCore
|453> 
|454> %pal
|455>     nprocs 12
|456> end
|457> 
|458> %maxcore 8000
|459> 
|460> %scf
|461>     ConvForced true
|462> end
|463> 
|464> *xyz 0 1
|465> O  -0.963233868  -0.835123624   0.719691961
|466> H  -1.523933868  -0.473623624   1.417191961
|467> H  -0.060133868  -0.946723624   1.126591961
|468> O   0.996566132   0.789276376  -0.807308039
|469> H   0.928566132   1.725776376  -0.581608039
|470> H   0.126366132   0.422376376  -0.571308039
|471> *
|472> 
|473> 
|474> $new_job
|475> 
|476> # 5h2o.temelso.etal.dset.2h2o-orca.engrad-mp2.augccpvtz-50.to.69
|477> ! MP2 aug-cc-pVTZ EnGrad TightSCF FrozenCore
|478> 
|479> %pal
|480>     nprocs 12
|481> end
|482> 
|483> %maxcore 8000
|484> 
|485> %scf
|486>     ConvForced true
|487> end
|488> 
|489> *xyz 0 1
|490> O   0.327383901  -0.917004762   1.094801463
|491> H   0.520383901  -0.285304762   0.378201463
|492> H   0.570883901  -1.794604762   0.729401463
|493> O  -0.299316099   0.898895238  -1.060098537
|494> H  -0.367316099   1.835395238  -0.834398537
|495> H  -1.169516099   0.531995238  -0.824098537
|496> *
|497> 
|498>                          ****END OF INPUT****
================================================================================


                 $$$$$$$$$$$$$$$$$$$$$$$$$$$$$$$$$$$$$$$$$$$$$$ 
                 $ THERE ARE 20 JOBS TO BE PROCESSED THIS RUN $
                 $$$$$$$$$$$$$$$$$$$$$$$$$$$$$$$$$$$$$$$$$$$$$$ 




                 $$$$$$$$$$$$$$$$  JOB NUMBER  1 $$$$$$$$$$$$$$


                     *******************************
                     * Energy+Gradient Calculation *
                     *******************************

---------------------------------
CARTESIAN COORDINATES (ANGSTROEM)
---------------------------------
  O      1.424227    0.104843   -0.100103
  H      0.456727   -0.064657   -0.088903
  H      1.628027    0.259443   -1.031203
  O     -1.351873   -0.114957    0.092997
  H     -1.570673    0.743743    0.510597
  H     -1.662673   -0.777957    0.722297

----------------------------
CARTESIAN COORDINATES (A.U.)
----------------------------
  NO LB      ZA    FRAG     MASS         X           Y           Z
   0 O     8.0000    0    15.999    2.691399    0.198124   -0.189166
   1 H     1.0000    0     1.008    0.863089   -0.122185   -0.168001
   2 H     1.0000    0     1.008    3.076525    0.490275   -1.948690
   3 O     8.0000    0    15.999   -2.554670   -0.217238    0.175740
   4 H     1.0000    0     1.008   -2.968142    1.405470    0.964889
   5 H     1.0000    0     1.008   -3.141996   -1.470127    1.364944

--------------------------------
INTERNAL COORDINATES (ANGSTROEM)
--------------------------------
 O      0   0   0     0.000000000000     0.00000000     0.00000000
 H      1   0   0     0.982299312837     0.00000000     0.00000000
 H      1   2   0     0.965599715203   104.27064061     0.00000000
 O      2   1   3     1.818420099977   170.24073404   245.59688270
 H      4   2   1     0.979606497528   103.91867602     6.51259206
 H      4   2   1     0.965496830652   113.85121153   253.33129084

---------------------------
INTERNAL COORDINATES (A.U.)
---------------------------
 O      0   0   0     0.000000000000     0.00000000     0.00000000
 H      1   0   0     1.856276682801     0.00000000     0.00000000
 H      1   2   0     1.824719016726   104.27064061     0.00000000
 O      2   1   3     3.436315985374   170.24073404   245.59688270
 H      4   2   1     1.851187999339   103.91867602     6.51259206
 H      4   2   1     1.824524593102   113.85121153   253.33129084

---------------------
BASIS SET INFORMATION
---------------------
There are 2 groups of distinct atoms

 Group   1 Type O   : 19s6p3d2f contracted to 5s4p3d2f pattern {88111/3111/111/11}
 Group   2 Type H   : 6s3p2d contracted to 4s3p2d pattern {3111/111/11}

Atom   0O    basis set group =>   1
Atom   1H    basis set group =>   2
Atom   2H    basis set group =>   2
Atom   3O    basis set group =>   1
Atom   4H    basis set group =>   2
Atom   5H    basis set group =>   2


           ************************************************************
           *        Program running with 12 parallel MPI-processes    *
           *              working on a common directory               *
           ************************************************************
------------------------------------------------------------------------------
                           ORCA GTO INTEGRAL CALCULATION
------------------------------------------------------------------------------

                         BASIS SET STATISTICS AND STARTUP INFO

 # of primitive gaussian shells          ...  104
 # of primitive gaussian functions       ...  232
 # of contracted shells                  ...   64
 # of contracted basis functions         ...  184
 Highest angular momentum                ...    3
 Maximum contraction depth               ...    8
 Integral package used                   ... LIBINT
 Integral threshhold            Thresh   ...  2.500e-11
 Primitive cut-off              TCut     ...  2.500e-12


------------------------------ INTEGRAL EVALUATION ----------------------------


 * One electron integrals 
 Pre-screening matrix                    ... done
 Shell pair data                         ... done (   0.001 sec)



           ************************************************************
           *        Program running with 12 parallel MPI-processes    *
           *              working on a common directory               *
           ************************************************************
-------------------------------------------------------------------------------
                                 ORCA SCF
-------------------------------------------------------------------------------

------------
SCF SETTINGS
------------
Hamiltonian:
 Ab initio Hamiltonian  Method          .... Hartree-Fock(GTOs)


General Settings:
 Integral files         IntName         .... 5h2o.temelso.etal.dset.2h2o-orca.engrad-mp2.augccpvtz-50.to.69
 Hartree-Fock type      HFTyp           .... RHF
 Total Charge           Charge          ....    0
 Multiplicity           Mult            ....    1
 Number of Electrons    NEL             ....   20
 Basis Dimension        Dim             ....  184
 Nuclear Repulsion      ENuc            ....     37.2424228271 Eh

Convergence Acceleration:
 DIIS                   CNVDIIS         .... on
   Start iteration      DIISMaxIt       ....    12
   Startup error        DIISStart       ....  0.200000
   # of expansion vecs  DIISMaxEq       ....     5
   Bias factor          DIISBfac        ....   1.050
   Max. coefficient     DIISMaxC        ....  10.000
 Newton-Raphson         CNVNR           .... off
 SOSCF                  CNVSOSCF        .... on
   Start iteration      SOSCFMaxIt      ....   150
   Startup grad/error   SOSCFStart      ....  0.003300
 Level Shifting         CNVShift        .... on
   Level shift para.    LevelShift      ....    0.2500
   Turn off err/grad.   ShiftErr        ....    0.0010
 Zerner damping         CNVZerner       .... off
 Static damping         CNVDamp         .... on
   Fraction old density DampFac         ....    0.7000
   Max. Damping (<1)    DampMax         ....    0.9800
   Min. Damping (>=0)   DampMin         ....    0.0000
   Turn off err/grad.   DampErr         ....    0.1000
 Fernandez-Rico         CNVRico         .... off

SCF Procedure:
 Maximum # iterations   MaxIter         ....   125
 SCF integral mode      SCFMode         .... Direct
   Integral package                     .... LIBINT
 Reset frequency        DirectResetFreq ....    20
 Integral Threshold     Thresh          ....  2.500e-11 Eh
 Primitive CutOff       TCut            ....  2.500e-12 Eh

Convergence Tolerance:
 Convergence Check Mode ConvCheckMode   .... Total+1el-Energy
 Convergence forced     ConvForced      .... 1
 Energy Change          TolE            ....  1.000e-08 Eh
 1-El. energy change                    ....  1.000e-05 Eh
 Orbital Gradient       TolG            ....  1.000e-05
 Orbital Rotation angle TolX            ....  1.000e-05
 DIIS Error             TolErr          ....  5.000e-07


Diagonalization of the overlap matrix:
Smallest eigenvalue                        ... 2.373e-04
Time for diagonalization                   ...    0.004 sec
Threshold for overlap eigenvalues          ... 1.000e-08
Number of eigenvalues below threshold      ... 0
Time for construction of square roots      ...    0.002 sec
Total time needed                          ...    0.006 sec

-------------------
DFT GRID GENERATION
-------------------

General Integration Accuracy     IntAcc      ...  4.340
Radial Grid Type                 RadialGrid  ... Gauss-Chebyshev
Angular Grid (max. acc.)         AngularGrid ... Lebedev-110
Angular grid pruning method      GridPruning ... 3 (G Style)
Weight generation scheme         WeightScheme... Becke
Basis function cutoff            BFCut       ...    1.0000e-11
Integration weight cutoff        WCut        ...    1.0000e-14
Grids for H and He will be reduced by one unit

# of grid points (after initial pruning)     ...   6608 (   0.0 sec)
# of grid points (after weights+screening)   ...   6477 (   0.0 sec)
nearest neighbour list constructed           ...    0.0 sec
Grid point re-assignment to atoms done       ...    0.0 sec
Grid point division into batches done        ...    0.0 sec
Reduced shell lists constructed in    0.0 sec

Total number of grid points                  ...     6477
Total number of batches                      ...      105
Average number of points per batch           ...       61
Average number of grid points per atom       ...     1080
Average number of shells per batch           ...    45.50 (71.09%)
Average number of basis functions per batch  ...   127.30 (69.18%)
Average number of large shells per batch     ...    39.10 (85.93%)
Average number of large basis fcns per batch ...   108.90 (85.55%)
Maximum spatial batch extension              ...  14.27, 20.95, 14.06 au
Average spatial batch extension              ...   0.50,  0.70,  0.58 au

Time for grid setup =    0.012 sec

------------------------------
INITIAL GUESS: MODEL POTENTIAL
------------------------------
Loading Hartree-Fock densities                     ... done
Calculating cut-offs                               ... done
Setting up the integral package                    ... done
Initializing the effective Hamiltonian             ... done
Starting the Coulomb interaction                   ... done (   0.0 sec)
Reading the grid                                   ... done
Mapping shells                                     ... done
Starting the XC term evaluation                    ... done (   0.0 sec)
Transforming the Hamiltonian                       ... done (   0.0 sec)
Diagonalizing the Hamiltonian                      ... done (   0.0 sec)
Back transforming the eigenvectors                 ... done (   0.0 sec)
Now organizing SCF variables                       ... done
                      ------------------
                      INITIAL GUESS DONE (   0.1 sec)
                      ------------------
--------------
SCF ITERATIONS
--------------
ITER       Energy         Delta-E        Max-DP      RMS-DP      [F,P]     Damp
               ***  Starting incremental Fock matrix formation  ***
  0   -151.9355907548   0.000000000000 0.02810438  0.00072055  0.3894850 0.7000
  1   -152.0094609409  -0.073870186118 0.01848141  0.00049363  0.2289139 0.7000
                               ***Turning on DIIS***
  2   -152.0482476261  -0.038786685266 0.01178705  0.00028012  0.1221251 0.7000
  3   -152.3509115686  -0.302663942458 0.03039419  0.00053698  0.0848656 0.0000
  4   -152.0750918745   0.275819694070 0.00462189  0.00009544  0.0138632 0.0000
  5   -152.1209487602  -0.045856885673 0.00261732  0.00004543  0.0033414 0.0000
                      *** Initiating the SOSCF procedure ***
                           *** Shutting down DIIS ***
                      *** Re-Reading the Fockian *** 
                      *** Removing any level shift *** 
ITER      Energy       Delta-E        Grad      Rot      Max-DP    RMS-DP
  6   -152.12033426   0.0006145022  0.000609  0.000609  0.001538  0.000025
               *** Restarting incremental Fock matrix formation ***
  7   -152.12285251  -0.0025182483  0.000165  0.000241  0.000257  0.000007
  8   -152.12285404  -0.0000015302  0.000070  0.000166  0.000283  0.000006
  9   -152.12285440  -0.0000003629  0.000025  0.000020  0.000044  0.000001
 10   -152.12285441  -0.0000000095  0.000012  0.000008  0.000010  0.000000
                  ***Gradient check signals convergence***
              ***Rediagonalizing the Fockian in SOSCF/NRSCF***

               *****************************************************
               *                     SUCCESS                       *
               *           SCF CONVERGED AFTER  11 CYCLES          *
               *****************************************************


----------------
TOTAL SCF ENERGY
----------------

Total Energy       :         -152.12285441 Eh           -4139.47332 eV

Components:
Nuclear Repulsion  :           37.24242283 Eh            1013.41785 eV
Electronic Energy  :         -189.36527724 Eh           -5152.89116 eV
One Electron Energy:         -283.87374620 Eh           -7724.59735 eV
Two Electron Energy:           94.50846896 Eh            2571.70618 eV

Virial components:
Potential Energy   :         -303.96629670 Eh           -8271.34344 eV
Kinetic Energy     :          151.84344229 Eh            4131.87012 eV
Virial Ratio       :            2.00184013


---------------
SCF CONVERGENCE
---------------

  Last Energy change         ...   -2.7477e-09  Tolerance :   1.0000e-08
  Last MAX-Density change    ...    4.7016e-06  Tolerance :   1.0000e-07
  Last RMS-Density change    ...    8.1411e-08  Tolerance :   5.0000e-09
  Last Orbital Gradient      ...    1.1845e-06  Tolerance :   1.0000e-05
  Last Orbital Rotation      ...    1.8302e-06  Tolerance :   1.0000e-05

             **** THE GBW FILE WAS UPDATED (5h2o.temelso.etal.dset.2h2o-orca.engrad-mp2.augccpvtz-50.to.69.gbw) ****
             **** DENSITY FILE WAS UPDATED (5h2o.temelso.etal.dset.2h2o-orca.engrad-mp2.augccpvtz-50.to.69.scfp) ****
             **** ENERGY FILE WAS UPDATED (5h2o.temelso.etal.dset.2h2o-orca.engrad-mp2.augccpvtz-50.to.69.en.tmp) ****
             **** THE GBW FILE WAS UPDATED (5h2o.temelso.etal.dset.2h2o-orca.engrad-mp2.augccpvtz-50.to.69.gbw) ****
             **** DENSITY FILE WAS UPDATED (5h2o.temelso.etal.dset.2h2o-orca.engrad-mp2.augccpvtz-50.to.69.scfp) ****
----------------
ORBITAL ENERGIES
----------------

  NO   OCC          E(Eh)            E(eV) 
   0   2.0000     -20.598195      -560.5054 
   1   2.0000     -20.532460      -558.7166 
   2   2.0000      -1.379111       -37.5275 
   3   2.0000      -1.312264       -35.7085 
   4   2.0000      -0.739981       -20.1359 
   5   2.0000      -0.688811       -18.7435 
   6   2.0000      -0.615790       -16.7565 
   7   2.0000      -0.559114       -15.2143 
   8   2.0000      -0.526578       -14.3289 
   9   2.0000      -0.476082       -12.9549 
  10   0.0000       0.022182         0.6036 
  11   0.0000       0.044350         1.2068 
  12   0.0000       0.048551         1.3211 
  13   0.0000       0.075603         2.0572 
  14   0.0000       0.120978         3.2920 
  15   0.0000       0.141186         3.8419 
  16   0.0000       0.163353         4.4451 
  17   0.0000       0.172048         4.6817 
  18   0.0000       0.176940         4.8148 
  19   0.0000       0.187612         5.1052 
  20   0.0000       0.212267         5.7761 
  21   0.0000       0.217863         5.9284 
  22   0.0000       0.234684         6.3861 
  23   0.0000       0.242781         6.6064 
  24   0.0000       0.265414         7.2223 
  25   0.0000       0.284657         7.7459 
  26   0.0000       0.299478         8.1492 
  27   0.0000       0.313693         8.5360 
  28   0.0000       0.363244         9.8844 
  29   0.0000       0.372909        10.1474 
  30   0.0000       0.378147        10.2899 
  31   0.0000       0.412555        11.2262 
  32   0.0000       0.420329        11.4377 
  33   0.0000       0.441971        12.0266 
  34   0.0000       0.446910        12.1610 
  35   0.0000       0.451227        12.2785 
  36   0.0000       0.492618        13.4048 
  37   0.0000       0.573216        15.5980 
  38   0.0000       0.596711        16.2373 
  39   0.0000       0.613316        16.6892 
  40   0.0000       0.664593        18.0845 
  41   0.0000       0.704948        19.1826 
  42   0.0000       0.722548        19.6615 
  43   0.0000       0.724649        19.7187 
  44   0.0000       0.746579        20.3154 
  45   0.0000       0.769641        20.9430 
  46   0.0000       0.786458        21.4006 
  47   0.0000       0.810984        22.0680 
  48   0.0000       0.822625        22.3848 
  49   0.0000       0.846116        23.0240 
  50   0.0000       0.858798        23.3691 
  51   0.0000       0.896764        24.4022 
  52   0.0000       0.917545        24.9677 
  53   0.0000       0.938685        25.5429 
  54   0.0000       0.946023        25.7426 
  55   0.0000       0.958827        26.0910 
  56   0.0000       0.971387        26.4328 
  57   0.0000       0.975364        26.5410 
  58   0.0000       0.986634        26.8477 
  59   0.0000       1.000502        27.2250 
  60   0.0000       1.017534        27.6885 
  61   0.0000       1.032805        28.1041 
  62   0.0000       1.049978        28.5714 
  63   0.0000       1.053784        28.6749 
  64   0.0000       1.088976        29.6326 
  65   0.0000       1.121998        30.5311 
  66   0.0000       1.165720        31.7209 
  67   0.0000       1.180429        32.1211 
  68   0.0000       1.197205        32.5776 
  69   0.0000       1.235035        33.6070 
  70   0.0000       1.253551        34.1108 
  71   0.0000       1.261981        34.3402 
  72   0.0000       1.279972        34.8298 
  73   0.0000       1.337262        36.3888 
  74   0.0000       1.407465        38.2991 
  75   0.0000       1.443379        39.2763 
  76   0.0000       1.513709        41.1901 
  77   0.0000       1.536579        41.8124 
  78   0.0000       1.560756        42.4703 
  79   0.0000       1.575371        42.8680 
  80   0.0000       1.624774        44.2124 
  81   0.0000       1.653083        44.9827 
  82   0.0000       1.704323        46.3770 
  83   0.0000       1.735240        47.2183 
  84   0.0000       1.811591        49.2959 
  85   0.0000       1.842987        50.1502 
  86   0.0000       1.943445        52.8838 
  87   0.0000       1.991993        54.2049 
  88   0.0000       2.067398        56.2568 
  89   0.0000       2.111337        57.4524 
  90   0.0000       2.129714        57.9525 
  91   0.0000       2.277573        61.9759 
  92   0.0000       2.309062        62.8328 
  93   0.0000       2.320979        63.1571 
  94   0.0000       2.354871        64.0793 
  95   0.0000       2.398422        65.2644 
  96   0.0000       2.444135        66.5083 
  97   0.0000       2.475336        67.3573 
  98   0.0000       2.490588        67.7724 
  99   0.0000       2.502990        68.1098 
 100   0.0000       2.514996        68.4365 
 101   0.0000       2.537005        69.0354 
 102   0.0000       2.583178        70.2919 
 103   0.0000       2.625296        71.4379 
 104   0.0000       2.658452        72.3402 
 105   0.0000       2.686917        73.1147 
 106   0.0000       2.733182        74.3737 
 107   0.0000       2.765274        75.2469 
 108   0.0000       2.791954        75.9729 
 109   0.0000       2.814946        76.5986 
 110   0.0000       2.856655        77.7335 
 111   0.0000       2.912826        79.2620 
 112   0.0000       2.941994        80.0557 
 113   0.0000       3.009993        81.9061 
 114   0.0000       3.021910        82.2304 
 115   0.0000       3.143229        85.5316 
 116   0.0000       3.751581       102.0857 
 117   0.0000       3.773544       102.6833 
 118   0.0000       3.828901       104.1897 
 119   0.0000       4.023796       109.4931 
 120   0.0000       4.074682       110.8777 
 121   0.0000       4.090826       111.3170 
 122   0.0000       4.176128       113.6382 
 123   0.0000       4.218589       114.7937 
 124   0.0000       4.227193       115.0278 
 125   0.0000       4.266910       116.1085 
 126   0.0000       4.284801       116.5954 
 127   0.0000       4.312623       117.3524 
 128   0.0000       4.357631       118.5772 
 129   0.0000       4.412488       120.0699 
 130   0.0000       4.421344       120.3109 
 131   0.0000       4.450658       121.1086 
 132   0.0000       4.462302       121.4254 
 133   0.0000       4.499545       122.4388 
 134   0.0000       4.519588       122.9842 
 135   0.0000       4.575357       124.5018 
 136   0.0000       4.603244       125.2606 
 137   0.0000       4.721047       128.4662 
 138   0.0000       4.737455       128.9127 
 139   0.0000       4.851363       132.0123 
 140   0.0000       4.872553       132.5889 
 141   0.0000       5.033553       136.9699 
 142   0.0000       5.107092       138.9710 
[...]
      dxz     :     0.001001
      dyz     :     0.005251
      dx2y2   :     0.002203
      dxy     :     0.006689
  3 O s       :     3.869598  s :     3.869598
      pz      :     1.810358  p :     4.555210
      px      :     1.447489
      py      :     1.297364
      dz2     :     0.008006  d :     0.043903
      dxz     :     0.008185
      dyz     :     0.006512
      dx2y2   :     0.013174
      dxy     :     0.008025
      f0      :     0.000740  f :     0.004875
      f+1     :     0.000731
      f-1     :     0.000777
      f+2     :     0.000754
      f-2     :     0.000641
      f+3     :     0.000590
      f-3     :     0.000643
  4 H s       :     0.666570  s :     0.666570
      pz      :     0.043645  p :     0.098842
      px      :     0.033512
      py      :     0.021685
      dz2     :     0.002095  d :     0.017899
      dxz     :     0.000286
      dyz     :     0.007882
      dx2y2   :     0.000759
      dxy     :     0.006877
  5 H s       :     0.645798  s :     0.645798
      pz      :     0.040114  p :     0.090162
      px      :     0.019395
      py      :     0.030653
      dz2     :     0.001677  d :     0.016245
      dxz     :     0.005229
      dyz     :     0.002452
      dx2y2   :     0.004721
      dxy     :     0.002166


                     *******************************
                     * LOEWDIN POPULATION ANALYSIS *
                     *******************************

----------------------
LOEWDIN ATOMIC CHARGES
----------------------
   0 O :    0.996071
   1 H :   -0.628088
   2 H :   -0.477928
   3 O :    1.044722
   4 H :   -0.473514
   5 H :   -0.461263

-------------------------------
LOEWDIN REDUCED ORBITAL CHARGES
-------------------------------
  0 O s       :     3.012426  s :     3.012426
      pz      :     1.324277  p :     3.873285
      px      :     1.402034
      py      :     1.146974
      dz2     :     0.013349  d :     0.099551
      dxz     :     0.007996
      dyz     :     0.041589
      dx2y2   :     0.023818
      dxy     :     0.012798
      f0      :     0.002264  f :     0.018668
      f+1     :     0.000932
      f-1     :     0.004254
      f+2     :     0.004054
      f-2     :     0.003031
      f+3     :     0.002313
      f-3     :     0.001819
  1 H s       :     0.565167  s :     0.565167
      pz      :     0.243772  p :     0.604479
      px      :     0.168976
      py      :     0.191731
      dz2     :     0.123014  d :     0.458442
      dxz     :     0.086950
      dyz     :     0.115215
      dx2y2   :     0.066647
      dxy     :     0.066615
  2 H s       :     0.583797  s :     0.583797
      pz      :     0.163839  p :     0.537472
      px      :     0.165841
      py      :     0.207793
      dz2     :     0.045839  d :     0.356659
      dxz     :     0.022137
      dyz     :     0.106501
      dx2y2   :     0.087794
      dxy     :     0.094388
  3 O s       :     2.985320  s :     2.985320
      pz      :     1.397334  p :     3.835795
      px      :     1.259111
      py      :     1.179349
      dz2     :     0.017563  d :     0.113291
      dxz     :     0.012097
      dyz     :     0.018011
      dx2y2   :     0.043484
      dxy     :     0.022136
      f0      :     0.002055  f :     0.020873
      f+1     :     0.001740
      f-1     :     0.002406
      f+2     :     0.003651
      f-2     :     0.001939
      f+3     :     0.002280
      f-3     :     0.006802
  4 H s       :     0.578237  s :     0.578237
      pz      :     0.165364  p :     0.536559
      px      :     0.141312
      py      :     0.229883
      dz2     :     0.042136  d :     0.358718
      dxz     :     0.005575
      dyz     :     0.112723
      dx2y2   :     0.077677
      dxy     :     0.120606
  5 H s       :     0.565377  s :     0.565377
      pz      :     0.164501  p :     0.533041
      px      :     0.227869
      py      :     0.140671
      dz2     :     0.043408  d :     0.362845
      dxz     :     0.097870
      dyz     :     0.023289
      dx2y2   :     0.107494
      dxy     :     0.090785


                      *****************************
                      * MAYER POPULATION ANALYSIS *
                      *****************************

  NA   - Mulliken gross atomic population
  ZA   - Total nuclear charge
  QA   - Mulliken gross atomic charge
  VA   - Mayer's total valence
  BVA  - Mayer's bonded valence
  FA   - Mayer's free valence

  ATOM       NA         ZA         QA         VA         BVA        FA
  0 O      8.5012     8.0000    -0.5012     2.1923     1.8119     0.3804
  1 H      0.7037     1.0000     0.2963     0.9462     0.8841     0.0621
  2 H      0.7860     1.0000     0.2140     1.0630     0.9945     0.0686
  3 O      8.4736     8.0000    -0.4736     2.1866     1.8080     0.3786
  4 H      0.7833     1.0000     0.2167     1.0422     0.9764     0.0658
  5 H      0.7522     1.0000     0.2478     1.0110     0.9463     0.0647

  Mayer bond orders larger than 0.100000
B(  0-O ,  1-H ) :   0.8718 B(  0-O ,  2-H ) :   0.9482 B(  3-O ,  4-H ) :   0.9430 
B(  3-O ,  5-H ) :   0.9034 


                *******************************************
                * RELAXED MP2 DENSITY POPULATION ANALYSIS *
                *******************************************

------------------------------------------------------------------------------
                           ORCA POPULATION ANALYSIS
------------------------------------------------------------------------------
Input electron density              ... 5h2o.temelso.etal.dset.2h2o-orca.engrad-mp2.augccpvtz-50.to.69_job20.pmp2re
BaseName (.gbw .S,...)              ... 5h2o.temelso.etal.dset.2h2o-orca.engrad-mp2.augccpvtz-50.to.69_job20

                    ********************************
                    * MULLIKEN POPULATION ANALYSIS *
                    ********************************

-----------------------
MULLIKEN ATOMIC CHARGES
-----------------------
   0 O :   -0.493422
   1 H :    0.276044
   2 H :    0.213067
   3 O :   -0.453471
   4 H :    0.214391
   5 H :    0.243391
Sum of atomic charges:    0.0000000

--------------------------------
MULLIKEN REDUCED ORBITAL CHARGES
--------------------------------
  0 O s       :     3.885007  s :     3.885007
      pz      :     1.516814  p :     4.557066
      px      :     1.788705
      py      :     1.251547
      dz2     :     0.009669  d :     0.046182
      dxz     :     0.008833
      dyz     :     0.012505
      dx2y2   :     0.007070
      dxy     :     0.008106
      f0      :     0.000602  f :     0.005167
      f+1     :     0.000686
      f-1     :     0.000595
      f+2     :     0.000825
      f-2     :     0.000816
      f+3     :     0.000799
      f-3     :     0.000844
  1 H s       :     0.593311  s :     0.593311
      pz      :     0.024203  p :     0.105318
      px      :     0.050023
      py      :     0.031091
      dz2     :     0.007326  d :     0.025328
      dxz     :     0.007642
      dyz     :    -0.000275
      dx2y2   :     0.003431
      dxy     :     0.007205
  2 H s       :     0.657665  s :     0.657665
      pz      :     0.037043  p :     0.114793
      px      :     0.054561
      py      :     0.023190
      dz2     :     0.001430  d :     0.014475
      dxz     :     0.000821
      dyz     :     0.004505
      dx2y2   :     0.001924
      dxy     :     0.005794
  3 O s       :     3.866280  s :     3.866280
      pz      :     1.790348  p :     4.538521
      px      :     1.446448
      py      :     1.301725
      dz2     :     0.008380  d :     0.043744
      dxz     :     0.008612
      dyz     :     0.006814
      dx2y2   :     0.012031
      dxy     :     0.007907
      f0      :     0.000775  f :     0.004926
      f+1     :     0.000750
      f-1     :     0.000801
      f+2     :     0.000739
      f-2     :     0.000643
      f+3     :     0.000570
      f-3     :     0.000648
  4 H s       :     0.660477  s :     0.660477
      pz      :     0.052188  p :     0.109622
      px      :     0.037391
      py      :     0.020043
      dz2     :     0.001636  d :     0.015510
      dxz     :     0.000270
      dyz     :     0.007043
      dx2y2   :     0.000326
      dxy     :     0.006236
  5 H s       :     0.640469  s :     0.640469
      pz      :     0.048244  p :     0.101274
      px      :     0.021208
      py      :     0.031822
      dz2     :     0.001451  d :     0.014865
      dxz     :     0.004572
      dyz     :     0.002543
      dx2y2   :     0.004349
      dxy     :     0.001950


                     *******************************
                     * LOEWDIN POPULATION ANALYSIS *
                     *******************************

----------------------
LOEWDIN ATOMIC CHARGES
----------------------
   0 O :    1.003674
   1 H :   -0.634558
   2 H :   -0.482204
   3 O :    1.054260
   4 H :   -0.476125
   5 H :   -0.465047

-------------------------------
LOEWDIN REDUCED ORBITAL CHARGES
-------------------------------
  0 O s       :     3.014388  s :     3.014388
      pz      :     1.319360  p :     3.865661
      px      :     1.389556
      py      :     1.156745
      dz2     :     0.012894  d :     0.097426
      dxz     :     0.007941
      dyz     :     0.040892
      dx2y2   :     0.023063
      dxy     :     0.012635
      f0      :     0.002260  f :     0.018851
      f+1     :     0.000939
      f-1     :     0.004302
      f+2     :     0.004121
      f-2     :     0.003047
      f+3     :     0.002309
      f-3     :     0.001873
  1 H s       :     0.563626  s :     0.563626
      pz      :     0.249605  p :     0.620363
      px      :     0.178004
      py      :     0.192753
      dz2     :     0.120379  d :     0.450569
      dxz     :     0.084359
      dyz     :     0.114290
      dx2y2   :     0.065608
      dxy     :     0.065934
  2 H s       :     0.578558  s :     0.578558
      pz      :     0.170679  p :     0.554516
      px      :     0.176059
      py      :     0.207778
      dz2     :     0.044679  d :     0.349130
      dxz     :     0.021156
      dyz     :     0.104726
      dx2y2   :     0.086569
      dxy     :     0.092000
  3 O s       :     2.986617  s :     2.986617
      pz      :     1.383696  p :     3.826556
      px      :     1.258061
      py      :     1.184799
      dz2     :     0.017334  d :     0.111506
      dxz     :     0.012217
      dyz     :     0.018207
      dx2y2   :     0.042429
      dxy     :     0.021319
      f0      :     0.002079  f :     0.021062
      f+1     :     0.001763
      f-1     :     0.002459
      f+2     :     0.003679
      f-2     :     0.001961
      f+3     :     0.002248
      f-3     :     0.006873
  4 H s       :     0.573663  s :     0.573663
      pz      :     0.174678  p :     0.550782
      px      :     0.145625
      py      :     0.230480
      dz2     :     0.041049  d :     0.351680
      dxz     :     0.005390
      dyz     :     0.109851
      dx2y2   :     0.077379
      dxy     :     0.118010
  5 H s       :     0.561101  s :     0.561101
      pz      :     0.173528  p :     0.547162
      px      :     0.231420
      py      :     0.142214
      dz2     :     0.042413  d :     0.356783
      dxz     :     0.095188
      dyz     :     0.023436
      dx2y2   :     0.105998
      dxy     :     0.089748


                      *****************************
                      * MAYER POPULATION ANALYSIS *
                      *****************************

  NA   - Mulliken gross atomic population
  ZA   - Total nuclear charge
  QA   - Mulliken gross atomic charge
  VA   - Mayer's total valence
  BVA  - Mayer's bonded valence
  FA   - Mayer's free valence

  ATOM       NA         ZA         QA         VA         BVA        FA
  0 O      8.4934     8.0000    -0.4934     2.2103     1.8375     0.3728
  1 H      0.7240     1.0000     0.2760     0.9895     0.9292     0.0603
  2 H      0.7869     1.0000     0.2131     1.0762     1.0088     0.0675
  3 O      8.4535     8.0000    -0.4535     2.2299     1.8582     0.3716
  4 H      0.7856     1.0000     0.2144     1.0557     0.9909     0.0648
  5 H      0.7566     1.0000     0.2434     1.0275     0.9636     0.0639

  Mayer bond orders larger than 0.100000
B(  0-O ,  1-H ) :   0.8879 B(  0-O ,  2-H ) :   0.9610 B(  3-O ,  4-H ) :   0.9558 
B(  3-O ,  5-H ) :   0.9177 


----------------------------------
MP2 DERIVATIVE INTEGRAL GENERATION
----------------------------------


Input Wavefunction Amplitudes       ... 5h2o.temelso.etal.dset.2h2o-orca.engrad-mp2.augccpvtz-50.to.69_job20.mp2tsaa.tmp
Input Correlated Electron Density   ... 5h2o.temelso.etal.dset.2h2o-orca.engrad-mp2.augccpvtz-50.to.69_job20.pmp2re
Input Energy Weighted Density       ... 5h2o.temelso.etal.dset.2h2o-orca.engrad-mp2.augccpvtz-50.to.69_job20.wmp2.tmp
Input SCF Electron Density          ... 5h2o.temelso.etal.dset.2h2o-orca.engrad-mp2.augccpvtz-50.to.69_job20.scfp

One-Electron Terms    ...
                        ... One-Electron Terms done
Prescreening matrices              ... done

Batch handling in the gradient evaluation:
Memory available                      ... 8000.0 MB
Memory per occupied orbital in Q2     ...    2.1 MB
Memory per occupied orbital in Q3     ...    0.1 MB
Total memory requirement per |i>      ...    2.1 MB
Max. Number of orbitals possible      ...   3746
Number of orbitals treated per batch  ...      8
Number of batches to be done          ...      1
Batch   0: i=    2 ...     9

---------------------------------------
MP2 TOTAL ENERGY:     -152.664466073 Eh
---------------------------------------

The final MP2 gradient
  0:  -0.00610247   0.01316199   0.00983204
  1:   0.00298188   0.00620259  -0.00359749
  2:   0.00378562  -0.01846827  -0.00639166
  3:   0.00808082   0.00010586  -0.00296745
  4:   0.00014063   0.00325574   0.00114229
  5:  -0.00888648  -0.00425790   0.00198227

-----------------------------------
NORM OF THE MP2 GRADIENT:  0.030835
-----------------------------------

-------------------------   --------------------
FINAL SINGLE POINT ENERGY      -152.664466073029
-------------------------   --------------------


                            ***************************************
                            *     ORCA property calculations      *
                            ***************************************

                                    ---------------------
                                    Active property flags
                                    ---------------------
   (+) Dipole Moment


------------------------------------------------------------------------------
                       ORCA ELECTRIC PROPERTIES CALCULATION
------------------------------------------------------------------------------

Dipole Moment Calculation                       ... on
Quadrupole Moment Calculation                   ... off
Polarizability Calculation                      ... off
GBWName                                         ... 5h2o.temelso.etal.dset.2h2o-orca.engrad-mp2.augccpvtz-50.to.69_job20.gbw
Electron density file                           ... 5h2o.temelso.etal.dset.2h2o-orca.engrad-mp2.augccpvtz-50.to.69_job20.scfp
The origin for moment calculation is the CENTER OF MASS  = (-0.000004,  0.000002 -0.000005)

-------------
DIPOLE MOMENT
-------------
                                X             Y             Z
Electronic contribution:      0.04142       0.05804       0.00819
Nuclear contribution   :     -0.41760       0.26944      -0.51631
                        -----------------------------------------
Total Dipole Moment    :     -0.37618       0.32748      -0.50813
                        -----------------------------------------
Magnitude (a.u.)       :      0.71200
Magnitude (Debye)      :      1.80976



--------------------
Rotational spectrum 
--------------------
 
Rotational constants in cm-1:     6.730048     0.220635     0.219372 
Rotational constants in MHz : 201761.775187  6614.471471  6576.611742 

 Dipole components along the rotational axes: 
x,y,z [a.u.] :    -0.668207    -0.134633     0.205714 
x,y,z [Debye]:    -1.698446    -0.342211     0.522884 

 

                         *** MP2 UNRELAXED DENSITY ***

------------------------------------------------------------------------------
                       ORCA ELECTRIC PROPERTIES CALCULATION
------------------------------------------------------------------------------

Dipole Moment Calculation                       ... on
Quadrupole Moment Calculation                   ... off
Polarizability Calculation                      ... off
GBWName                                         ... 5h2o.temelso.etal.dset.2h2o-orca.engrad-mp2.augccpvtz-50.to.69_job20.gbw
Electron density file                           ... 5h2o.temelso.etal.dset.2h2o-orca.engrad-mp2.augccpvtz-50.to.69_job20.pmp2ur
The origin for moment calculation is the CENTER OF MASS  = (-0.000004,  0.000002 -0.000005)

-------------
DIPOLE MOMENT
-------------
                                X             Y             Z
Electronic contribution:      0.04723       0.05592       0.01521
Nuclear contribution   :     -0.41760       0.26944      -0.51631
                        -----------------------------------------
Total Dipole Moment    :     -0.37036       0.32536      -0.50110
                        -----------------------------------------
Magnitude (a.u.)       :      0.70294
Magnitude (Debye)      :      1.78674



--------------------
Rotational spectrum 
--------------------
 
Rotational constants in cm-1:     6.730048     0.220635     0.219372 
Rotational constants in MHz : 201761.775187  6614.471471  6576.611742 

 Dipole components along the rotational axes: 
x,y,z [a.u.] :    -0.660404    -0.130873     0.202163 
x,y,z [Debye]:    -1.678613    -0.332652     0.513858 

 

                           *** MP2 RELAXED DENSITY ***

------------------------------------------------------------------------------
                       ORCA ELECTRIC PROPERTIES CALCULATION
------------------------------------------------------------------------------

Dipole Moment Calculation                       ... on
Quadrupole Moment Calculation                   ... off
Polarizability Calculation                      ... off
GBWName                                         ... 5h2o.temelso.etal.dset.2h2o-orca.engrad-mp2.augccpvtz-50.to.69_job20.gbw
Electron density file                           ... 5h2o.temelso.etal.dset.2h2o-orca.engrad-mp2.augccpvtz-50.to.69_job20.pmp2re
The origin for moment calculation is the CENTER OF MASS  = (-0.000004,  0.000002 -0.000005)

-------------
DIPOLE MOMENT
-------------
                                X             Y             Z
Electronic contribution:      0.05643       0.04992       0.02854
Nuclear contribution   :     -0.41760       0.26944      -0.51631
                        -----------------------------------------
Total Dipole Moment    :     -0.36116       0.31935      -0.48778
                        -----------------------------------------
Magnitude (a.u.)       :      0.68582
Magnitude (Debye)      :      1.74322



--------------------
Rotational spectrum 
--------------------
 
Rotational constants in cm-1:     6.730048     0.220635     0.219372 
Rotational constants in MHz : 201761.775187  6614.471471  6576.611742 

 Dipole components along the rotational axes: 
x,y,z [a.u.] :    -0.644736    -0.125497     0.197275 
x,y,z [Debye]:    -1.638789    -0.318988     0.501432 

 

Timings for individual modules:

Sum of individual times         ...       24.081 sec (=   0.401 min)
GTO integral calculation        ...        0.858 sec (=   0.014 min)   3.6 %
SCF iterations                  ...        8.223 sec (=   0.137 min)  34.1 %
MP2 module                      ...       15.000 sec (=   0.250 min)  62.3 %



                             ****ORCA TERMINATED NORMALLY****
TOTAL RUN TIME: 0 days 0 hours 7 minutes 34 seconds 62 msec
