
                                 *****************
                                 * O   R   C   A *
                                 *****************

           --- An Ab Initio, DFT and Semiempirical electronic structure package ---

                  #######################################################
                  #                        -***-                        #
                  #          Department of theory and spectroscopy      #
                  #               Directorship: Frank Neese             #
                  #        Max Planck Institute fuer Kohlenforschung    #
                  #                Kaiser Wilhelm Platz 1               #
                  #                 D-45470 Muelheim/Ruhr               #
                  #                      Germany                        #
                  #                                                     #
                  #                  All rights reserved                #
                  #                        -***-                        #
                  #######################################################


                         Program Version 4.2.0 -  RELEASE  -


 With contributions from (in alphabetic order):
   Daniel Aravena         : Magnetic Suceptibility
   Michael Atanasov       : Ab Initio Ligand Field Theory (pilot matlab implementation)
   Alexander A. Auer      : GIAO ZORA, VPT2
   Ute Becker             : Parallelization
   Giovanni Bistoni       : ED, misc. LED, open-shell LED, HFLED
   Martin Brehm           : Molecular dynamics
   Dmytro Bykov           : SCF Hessian
   Vijay G. Chilkuri      : MRCI spin determinant printing, contributions to CSF-ICE
   Dipayan Datta          : RHF DLPNO-CCSD density
   Achintya Kumar Dutta   : EOM-CC, STEOM-CC
   Dmitry Ganyushin       : Spin-Orbit,Spin-Spin,Magnetic field MRCI
   Miquel Garcia          : C-PCM Hessian, Gaussian charge scheme
   Yang Guo               : DLPNO-NEVPT2, CIM, IAO-localization
   Andreas Hansen         : Spin unrestricted coupled pair/coupled cluster methods
   Benjamin Helmich-Paris : CASSCF linear response (MC-RPA)
   Lee Huntington         : MR-EOM, pCC
   Robert Izsak           : Overlap fitted RIJCOSX, COSX-SCS-MP3, EOM
   Christian Kollmar      : KDIIS, OOCD, Brueckner-CCSD(T), CCSD density
   Simone Kossmann        : Meta GGA functionals, TD-DFT gradient, OOMP2, MP2 Hessian
   Martin Krupicka        : AUTO-CI
   Lucas Lang             : DCDCAS
   Dagmar Lenk            : GEPOL surface, SMD
   Dimitrios Liakos       : Extrapolation schemes; Compound Job, initial MDCI parallelization
   Dimitrios Manganas     : Further ROCIS development; embedding schemes
   Dimitrios Pantazis     : SARC Basis sets
   Taras Petrenko         : DFT Hessian,TD-DFT gradient, ASA, ECA, R-Raman, ABS, FL, XAS/XES, NRVS
   Peter Pinski           : DLPNO-MP2, DLPNO-MP2 Gradient
   Christoph Reimann      : Effective Core Potentials
   Marius Retegan         : Local ZFS, SOC
   Christoph Riplinger    : Optimizer, TS searches, QM/MM, DLPNO-CCSD(T), (RO)-DLPNO pert. Triples
   Tobias Risthaus        : Range-separated hybrids, TD-DFT gradient, RPA, STAB
   Michael Roemelt        : Original ROCIS implementation
   Masaaki Saitow         : Open-shell DLPNO-CCSD energy and density
   Barbara Sandhoefer     : DKH picture change effects
   Avijit Sen             : IP-ROCIS
   Kantharuban Sivalingam : CASSCF convergence, NEVPT2, FIC-MRCI
   Bernardo de Souza      : ESD, SOC TD-DFT
   Georgi Stoychev        : AutoAux, RI-MP2 NMR
   Willem Van den Heuvel  : Paramagnetic NMR
   Boris Wezisla          : Elementary symmetry handling
   Frank Wennmohs         : Technical directorship


 We gratefully acknowledge several colleagues who have allowed us to
 interface, adapt or use parts of their codes:
   Stefan Grimme, W. Hujo, H. Kruse,             : VdW corrections, initial TS optimization,
                  C. Bannwarth                     DFT functionals, gCP, sTDA/sTD-DF
   Ed Valeev, F. Pavosevic, A. Kumar             : LibInt (2-el integral package), F12 methods
   Garnet Chan, S. Sharma, J. Yang, R. Olivares  : DMRG
   Ulf Ekstrom                                   : XCFun DFT Library
   Mihaly Kallay                                 : mrcc  (arbitrary order and MRCC methods)
   Andreas Klamt, Michael Diedenhofen            : otool_cosmo (COSMO solvation model)
   Jiri Pittner, Ondrej Demel                    : Mk-CCSD
   Frank Weinhold                                : gennbo (NPA and NBO analysis)
   Christopher J. Cramer and Donald G. Truhlar   : smd solvation model
   Lars Goerigk                                  : TD-DFT with DH, B97 family of functionals
   V. Asgeirsson, H. Jonsson                     : NEB implementation
   FAccTs GmbH                                   : IRC, NEB, NEB-TS, Multilevel, MM, QM/MM, CI optimization
   S Lehtola, MJT Oliveira, MAL Marques          : LibXC Library


 Your calculation uses the libint2 library for the computation of 2-el integrals
 For citations please refer to: http://libint.valeyev.net

 Your ORCA version has been built with support for libXC version: 4.2.3
 For citations please refer to: https://tddft.org/programs/libxc/

 This ORCA versions uses:
   CBLAS   interface :  Fast vector & matrix operations
   LAPACKE interface :  Fast linear algebra routines
   SCALAPACK package :  Parallel linear algebra routines


----- Orbital basis set information -----
Your calculation utilizes the basis: def2-TZVP
   F. Weigend and R. Ahlrichs, Phys. Chem. Chem. Phys. 7, 3297 (2005).

================================================================================
                                        WARNINGS
                       Please study these warnings very carefully!
================================================================================


WARNING: The frozen-core approximation for MP2-gradient calculations is turned on by default.

INFO   : the flag for use of LIBINT has been found!

----- Orbital basis set information -----
Your calculation utilizes the basis: def2-TZVP
   F. Weigend and R. Ahlrichs, Phys. Chem. Chem. Phys. 7, 3297 (2005).

================================================================================
                                        WARNINGS
                       Please study these warnings very carefully!
================================================================================


WARNING: The frozen-core approximation for MP2-gradient calculations is turned on by default.

INFO   : the flag for use of LIBINT has been found!

----- Orbital basis set information -----
Your calculation utilizes the basis: def2-TZVP
   F. Weigend and R. Ahlrichs, Phys. Chem. Chem. Phys. 7, 3297 (2005).

================================================================================
                                        WARNINGS
                       Please study these warnings very carefully!
================================================================================


WARNING: The frozen-core approximation for MP2-gradient calculations is turned on by default.

INFO   : the flag for use of LIBINT has been found!

----- Orbital basis set information -----
Your calculation utilizes the basis: def2-TZVP
   F. Weigend and R. Ahlrichs, Phys. Chem. Chem. Phys. 7, 3297 (2005).

================================================================================
                                        WARNINGS
                       Please study these warnings very carefully!
================================================================================


WARNING: The frozen-core approximation for MP2-gradient calculations is turned on by default.

INFO   : the flag for use of LIBINT has been found!

----- Orbital basis set information -----
Your calculation utilizes the basis: def2-TZVP
   F. Weigend and R. Ahlrichs, Phys. Chem. Chem. Phys. 7, 3297 (2005).

================================================================================
                                        WARNINGS
                       Please study these warnings very carefully!
================================================================================


WARNING: The frozen-core approximation for MP2-gradient calculations is turned on by default.

INFO   : the flag for use of LIBINT has been found!

----- Orbital basis set information -----
Your calculation utilizes the basis: def2-TZVP
   F. Weigend and R. Ahlrichs, Phys. Chem. Chem. Phys. 7, 3297 (2005).

================================================================================
                                        WARNINGS
                       Please study these warnings very carefully!
================================================================================


WARNING: The frozen-core approximation for MP2-gradient calculations is turned on by default.

INFO   : the flag for use of LIBINT has been found!

----- Orbital basis set information -----
Your calculation utilizes the basis: def2-TZVP
   F. Weigend and R. Ahlrichs, Phys. Chem. Chem. Phys. 7, 3297 (2005).

================================================================================
                                        WARNINGS
                       Please study these warnings very carefully!
================================================================================


WARNING: The frozen-core approximation for MP2-gradient calculations is turned on by default.

INFO   : the flag for use of LIBINT has been found!

----- Orbital basis set information -----
Your calculation utilizes the basis: def2-TZVP
   F. Weigend and R. Ahlrichs, Phys. Chem. Chem. Phys. 7, 3297 (2005).

================================================================================
                                        WARNINGS
                       Please study these warnings very carefully!
================================================================================


WARNING: The frozen-core approximation for MP2-gradient calculations is turned on by default.

INFO   : the flag for use of LIBINT has been found!

----- Orbital basis set information -----
Your calculation utilizes the basis: def2-TZVP
   F. Weigend and R. Ahlrichs, Phys. Chem. Chem. Phys. 7, 3297 (2005).

================================================================================
                                        WARNINGS
                       Please study these warnings very carefully!
================================================================================


WARNING: The frozen-core approximation for MP2-gradient calculations is turned on by default.

INFO   : the flag for use of LIBINT has been found!

----- Orbital basis set information -----
Your calculation utilizes the basis: def2-TZVP
   F. Weigend and R. Ahlrichs, Phys. Chem. Chem. Phys. 7, 3297 (2005).

================================================================================
                                        WARNINGS
                       Please study these warnings very carefully!
================================================================================


WARNING: The frozen-core approximation for MP2-gradient calculations is turned on by default.

INFO   : the flag for use of LIBINT has been found!

----- Orbital basis set information -----
Your calculation utilizes the basis: def2-TZVP
   F. Weigend and R. Ahlrichs, Phys. Chem. Chem. Phys. 7, 3297 (2005).

================================================================================
                                        WARNINGS
                       Please study these warnings very carefully!
================================================================================


WARNING: The frozen-core approximation for MP2-gradient calculations is turned on by default.

INFO   : the flag for use of LIBINT has been found!

----- Orbital basis set information -----
Your calculation utilizes the basis: def2-TZVP
   F. Weigend and R. Ahlrichs, Phys. Chem. Chem. Phys. 7, 3297 (2005).

================================================================================
                                        WARNINGS
                       Please study these warnings very carefully!
================================================================================


WARNING: The frozen-core approximation for MP2-gradient calculations is turned on by default.

INFO   : the flag for use of LIBINT has been found!

----- Orbital basis set information -----
Your calculation utilizes the basis: def2-TZVP
   F. Weigend and R. Ahlrichs, Phys. Chem. Chem. Phys. 7, 3297 (2005).

================================================================================
                                        WARNINGS
                       Please study these warnings very carefully!
================================================================================


WARNING: The frozen-core approximation for MP2-gradient calculations is turned on by default.

INFO   : the flag for use of LIBINT has been found!

----- Orbital basis set information -----
Your calculation utilizes the basis: def2-TZVP
   F. Weigend and R. Ahlrichs, Phys. Chem. Chem. Phys. 7, 3297 (2005).

================================================================================
                                        WARNINGS
                       Please study these warnings very carefully!
================================================================================


WARNING: The frozen-core approximation for MP2-gradient calculations is turned on by default.

INFO   : the flag for use of LIBINT has been found!

----- Orbital basis set information -----
Your calculation utilizes the basis: def2-TZVP
   F. Weigend and R. Ahlrichs, Phys. Chem. Chem. Phys. 7, 3297 (2005).

================================================================================
                                        WARNINGS
                       Please study these warnings very carefully!
================================================================================


WARNING: The frozen-core approximation for MP2-gradient calculations is turned on by default.

INFO   : the flag for use of LIBINT has been found!

----- Orbital basis set information -----
Your calculation utilizes the basis: def2-TZVP
   F. Weigend and R. Ahlrichs, Phys. Chem. Chem. Phys. 7, 3297 (2005).

================================================================================
                                        WARNINGS
                       Please study these warnings very carefully!
================================================================================


WARNING: The frozen-core approximation for MP2-gradient calculations is turned on by default.

INFO   : the flag for use of LIBINT has been found!

----- Orbital basis set information -----
Your calculation utilizes the basis: def2-TZVP
   F. Weigend and R. Ahlrichs, Phys. Chem. Chem. Phys. 7, 3297 (2005).

================================================================================
                                        WARNINGS
                       Please study these warnings very carefully!
================================================================================


WARNING: The frozen-core approximation for MP2-gradient calculations is turned on by default.

INFO   : the flag for use of LIBINT has been found!

----- Orbital basis set information -----
Your calculation utilizes the basis: def2-TZVP
   F. Weigend and R. Ahlrichs, Phys. Chem. Chem. Phys. 7, 3297 (2005).

================================================================================
                                        WARNINGS
                       Please study these warnings very carefully!
================================================================================


WARNING: The frozen-core approximation for MP2-gradient calculations is turned on by default.

INFO   : the flag for use of LIBINT has been found!

----- Orbital basis set information -----
Your calculation utilizes the basis: def2-TZVP
   F. Weigend and R. Ahlrichs, Phys. Chem. Chem. Phys. 7, 3297 (2005).

================================================================================
                                        WARNINGS
                       Please study these warnings very carefully!
================================================================================


WARNING: The frozen-core approximation for MP2-gradient calculations is turned on by default.

INFO   : the flag for use of LIBINT has been found!

----- Orbital basis set information -----
Your calculation utilizes the basis: def2-TZVP
   F. Weigend and R. Ahlrichs, Phys. Chem. Chem. Phys. 7, 3297 (2005).

================================================================================
                                        WARNINGS
                       Please study these warnings very carefully!
================================================================================


WARNING: The frozen-core approximation for MP2-gradient calculations is turned on by default.

INFO   : the flag for use of LIBINT has been found!

----- Orbital basis set information -----
Your calculation utilizes the basis: def2-TZVP
   F. Weigend and R. Ahlrichs, Phys. Chem. Chem. Phys. 7, 3297 (2005).

================================================================================
                                        WARNINGS
                       Please study these warnings very carefully!
================================================================================


WARNING: The frozen-core approximation for MP2-gradient calculations is turned on by default.

INFO   : the flag for use of LIBINT has been found!

----- Orbital basis set information -----
Your calculation utilizes the basis: def2-TZVP
   F. Weigend and R. Ahlrichs, Phys. Chem. Chem. Phys. 7, 3297 (2005).

================================================================================
                                        WARNINGS
                       Please study these warnings very carefully!
================================================================================


WARNING: The frozen-core approximation for MP2-gradient calculations is turned on by default.

INFO   : the flag for use of LIBINT has been found!

----- Orbital basis set information -----
Your calculation utilizes the basis: def2-TZVP
   F. Weigend and R. Ahlrichs, Phys. Chem. Chem. Phys. 7, 3297 (2005).

================================================================================
                                        WARNINGS
                       Please study these warnings very carefully!
================================================================================


WARNING: The frozen-core approximation for MP2-gradient calculations is turned on by default.

INFO   : the flag for use of LIBINT has been found!

----- Orbital basis set information -----
Your calculation utilizes the basis: def2-TZVP
   F. Weigend and R. Ahlrichs, Phys. Chem. Chem. Phys. 7, 3297 (2005).

================================================================================
                                        WARNINGS
                       Please study these warnings very carefully!
================================================================================


WARNING: The frozen-core approximation for MP2-gradient calculations is turned on by default.

INFO   : the flag for use of LIBINT has been found!

================================================================================
                                       INPUT FILE
================================================================================
NAME = 4mecn.malloum.etal.dset.3mecn.dset-orca.engrad-mp2.def2tzvp.inp
|  1> # 4mecn.malloum.etal.dset.3mecn.dset-orca.engrad-mp2.def2tzvp
|  2> ! MP2 def2-TZVP EnGrad TightSCF FrozenCore
|  3> 
|  4> %pal
|  5>     nprocs 12
|  6> end
|  7> 
|  8> %maxcore 8000
|  9> 
| 10> %scf
| 11>     ConvForced true
| 12> end
| 13> 
| 14> *xyz 0 1
| 15> C  -1.206721253  -2.695609472  -0.456189601
| 16> H  -1.165713253  -2.603454472   0.633113399
| 17> H  -0.404602253  -3.362849472  -0.779715601
| 18> H  -2.176579253  -3.100045472  -0.757245601
| 19> C  -1.012301253  -1.374935472  -1.047697601
| 20> N  -0.873378253  -0.321039472  -1.517945601
| 21> C   2.245935747   0.368754528  -1.890368601
| 22> H   1.443815747   0.692277528  -2.557608601
| 23> H   2.204931747  -0.720549472  -1.798212601
| 24> H   3.215792747   0.669812528  -2.294804601
| 25> C   2.051514747   0.960262528  -0.569695601
| 26> N   1.912588747   1.430510528   0.484200399
| 27> C  -1.206727253   1.802925528   1.173993399
| 28> H  -1.165721253   1.710769528   0.084689399
| 29> H  -0.404610253   2.470168528   1.497518399
| 30> H  -2.176586253   2.207357528   1.475050399
| 31> C  -1.012302253   0.482252528   1.765501399
| 32> N  -0.873374253  -0.571642472   2.235749399
| 33> *
| 34> 
| 35> 
| 36> $new_job
| 37> 
| 38> # 4mecn.malloum.etal.dset.3mecn.dset-orca.engrad-mp2.def2tzvp
| 39> ! MP2 def2-TZVP EnGrad TightSCF FrozenCore
| 40> 
| 41> %pal
| 42>     nprocs 12
| 43> end
| 44> 
| 45> %maxcore 8000
| 46> 
| 47> %scf
| 48>     ConvForced true
| 49> end
| 50> 
| 51> *xyz 0 1
| 52> C  -2.245935862  -1.890369918  -0.368749382
| 53> H  -2.204927862  -1.798214918   0.720553618
| 54> H  -1.443816862  -2.557609918  -0.692275382
| 55> H  -3.215793862  -2.294805918  -0.669805382
| 56> C  -2.051515862  -0.569695918  -0.960257382
| 57> N  -1.912592862   0.484200082  -1.430505382
| 58> C   1.206721138   1.173994082  -1.802928382
| 59> H   0.404601138   1.497517082  -2.470168382
| 60> H   1.165717138   0.084690082  -1.710772382
| 61> H   2.176578138   1.475052082  -2.207364382
| 62> C   1.012300138   1.765502082  -0.482255382
| 63> N   0.873374138   2.235750082   0.571640618
| 64> C   1.206729138  -0.456188918   2.695605618
| 65> H   2.176589138  -0.757242918   3.100038618
| 66> H   0.404613138  -0.779716918   3.362848618
| 67> H   1.165719138   0.633114082   2.603451618
| 68> C   1.012306138  -1.047697918   1.374933618
| 69> N   0.873379138  -1.517945918   0.321037618
| 70> *
| 71> 
| 72> 
| 73> $new_job
| 74> 
| 75> # 4mecn.malloum.etal.dset.3mecn.dset-orca.engrad-mp2.def2tzvp
| 76> ! MP2 def2-TZVP EnGrad TightSCF FrozenCore
| 77> 
| 78> %pal
| 79>     nprocs 12
| 80> end
| 81> 
| 82> %maxcore 8000
| 83> 
| 84> %scf
| 85>     ConvForced true
| 86> end
| 87> 
| 88> *xyz 0 1
| 89> C  -1.206723391  -1.802929251  -1.173991277
| 90> H  -1.165715391  -1.710774251  -0.084688277
| 91> H  -0.404604391  -2.470169251  -1.497517277
| 92> H  -2.176581391  -2.207365251  -1.475047277
| 93> C  -1.012303391  -0.482255251  -1.765499277
| 94> N  -0.873380391   0.571640749  -2.235747277
| 95> C  -1.206729391   2.695605749   0.456191723
| 96> H  -1.165723391   2.603449749  -0.633112277
| 97> H  -0.404612391   3.362848749   0.779716723
| 98> H  -2.176588391   3.100037749   0.757248723
| 99> C  -1.012304391   1.374932749   1.047699723
|100> N  -0.873376391   0.321037749   1.517947723
|101> C   2.245941609  -0.368748251   1.890363723
|102> H   3.215801609  -0.669802251   2.294796723
|103> H   1.443825609  -0.692276251   2.557606723
|104> H   2.204931609   0.720554749   1.798209723
|105> C   2.051518609  -0.960257251   0.569691723
|106> N   1.912591609  -1.430505251  -0.484204277
|107> *
|108> 
|109> 
|110> $new_job
|111> 
|112> # 4mecn.malloum.etal.dset.3mecn.dset-orca.engrad-mp2.def2tzvp
|113> ! MP2 def2-TZVP EnGrad TightSCF FrozenCore
|114> 
|115> %pal
|116>     nprocs 12
|117> end
|118> 
|119> %maxcore 8000
|120> 
|121> %scf
|122>     ConvForced true
|123> end
|124> 
|125> *xyz 0 1
|126> C   1.206721554   0.456192398  -2.695608399
|127> H   0.404601554   0.779715398  -3.362848399
|128> H   1.165717554  -0.633111602  -2.603452399
|129> H   2.176578554   0.757250398  -3.100044399
|130> C   1.012300554   1.047700398  -1.374935399
|131> N   0.873374554   1.517948398  -0.321039399
|132> C  -2.245941446   1.890363398   0.368753601
|133> H  -2.204935446   1.798207398  -0.720550399
|134> H  -1.443824446   2.557606398   0.692278601
|135> H  -3.215800446   2.294795398   0.669810601
|136> C  -2.051516446   0.569690398   0.960261601
|137> N  -1.912588446  -0.484204602   1.430509601
|138> C   1.206729554  -1.173990602   1.802925601
|139> H   2.176589554  -1.475044602   2.207358601
|140> H   0.404613554  -1.497518602   2.470168601
|141> H   1.165719554  -0.084687602   1.710771601
|142> C   1.012306554  -1.765499602   0.482253601
|143> N   0.873379554  -2.235747602  -0.571642399
|144> *
|145> 
|146> 
|147> $new_job
|148> 
|149> # 4mecn.malloum.etal.dset.3mecn.dset-orca.engrad-mp2.def2tzvp
|150> ! MP2 def2-TZVP EnGrad TightSCF FrozenCore
|151> 
|152> %pal
|153>     nprocs 12
|154> end
|155> 
|156> %maxcore 8000
|157> 
|158> %scf
|159>     ConvForced true
|160> end
|161> 
|162> *xyz 0 1
|163> C   2.664895016  -0.132947811  -1.656101505
|164> H   2.555582016  -1.212466811  -1.527108505
|165> H   3.570760016   0.084665189  -2.227514505
|166> H   1.788380016   0.244643189  -2.190792505
|167> C   2.729585016   0.513229189  -0.348439505
|168> N   2.769474016   1.030493189   0.691891495
|169> C  -2.664894984  -0.132949811  -1.656100505
|170> H  -2.555564984  -1.212465811  -1.527107505
|171> H  -1.788390984   0.244654189  -2.190798505
|172> H  -3.570767984   0.084649189  -2.227506505
|173> C  -2.729584984   0.513228189  -0.348439505
|174> N  -2.769474984   1.030495189   0.691890495
|175> C   0.000000016  -0.352972811   2.174874495
|176> H   0.896569016   0.263848189   2.291292495
|177> H   0.000000016  -1.136893811   2.936702495
|178> H  -0.896568984   0.263847189   2.291292495
|179> C   0.000000016  -0.951113811   0.842800495
|180> N   0.000001016  -1.424017811  -0.219159505
|181> *
|182> 
|183> 
|184> $new_job
|185> 
|186> # 4mecn.malloum.etal.dset.3mecn.dset-orca.engrad-mp2.def2tzvp
|187> ! MP2 def2-TZVP EnGrad TightSCF FrozenCore
|188> 
|189> %pal
|190>     nprocs 12
|191> end
|192> 
|193> %maxcore 8000
|194> 
|195> %scf
|196>     ConvForced true
|197> end
|198> 
|199> *xyz 0 1
|200> C   2.664895122  -1.280533798  -1.170585189
|201> H   2.555582122  -2.360052798  -1.041592189
|202> H   3.570760122  -1.062920798  -1.741998189
|203> H   1.788380122  -0.902942798  -1.705276189
|204> C   2.729585122  -0.634356798   0.137076811
|205> N   2.769474122  -0.117092798   1.177407811
|206> C  -2.664894878  -1.280535798  -1.170584189
|207> H  -2.555564878  -2.360051798  -1.041591189
|208> H  -1.788390878  -0.902931798  -1.705282189
|209> H  -3.570767878  -1.062936798  -1.741990189
|210> C  -2.729584878  -0.634357798   0.137076811
|211> N  -2.769474878  -0.117090798   1.177406811
|212> C   0.000000122   1.948491202   1.200922811
|213> H   0.896604122   1.628778202   1.740499811
|214> H  -0.896601878   1.628776202   1.740500811
|215> H  -0.000000878   3.038231202   1.115393811
|216> C   0.000000122   1.344296202  -0.128413189
|217> N   0.000000122   0.864154202  -1.186829189
|218> *
|219> 
|220> 
|221> $new_job
|222> 
|223> # 4mecn.malloum.etal.dset.3mecn.dset-orca.engrad-mp2.def2tzvp
|224> ! MP2 def2-TZVP EnGrad TightSCF FrozenCore
|225> 
|226> %pal
|227>     nprocs 12
|228> end
|229> 
|230> %maxcore 8000
|231> 
|232> %scf
|233>     ConvForced true
|234> end
|235> 
|236> *xyz 0 1
|237> C   1.759047748  -0.839343967  -1.666937313
|238> H   1.649734748  -1.918862967  -1.537944313
|239> H   2.664912748  -0.621730967  -2.238350313
|240> H   0.882532748  -0.461752967  -2.201628313
|241> C   1.823737748  -0.193166967  -0.359275313
|242> N   1.863626748   0.324097033   0.681055687
|243> C  -0.905847252  -1.059368967   2.164038687
|244> H  -0.009278252  -0.442547967   2.280456687
|245> H  -0.905847252  -1.843289967   2.925866687
|246> H  -1.802416252  -0.442548967   2.280456687
|247> C  -0.905847252  -1.657509967   0.831964687
|248> N  -0.905846252  -2.130413967  -0.229995313
|249> C  -0.905847252   2.389681033   0.704570687
|250> H  -0.009243252   2.069968033   1.244147687
|251> H  -1.802449252   2.069966033   1.244148687
|252> H  -0.905848252   3.479421033   0.619041687
|253> C  -0.905847252   1.785486033  -0.624765313
|254> N  -0.905847252   1.305344033  -1.683181313
|255> *
|256> 
|257> 
|258> $new_job
|259> 
|260> # 4mecn.malloum.etal.dset.3mecn.dset-orca.engrad-mp2.def2tzvp
|261> ! MP2 def2-TZVP EnGrad TightSCF FrozenCore
|262> 
|263> %pal
|264>     nprocs 12
|265> end
|266> 
|267> %maxcore 8000
|268> 
|269> %scf
|270>     ConvForced true
|271> end
|272> 
|273> *xyz 0 1
|274> C  -1.759047862  -0.839345870  -1.666936322
|275> H  -1.649717862  -1.918861870  -1.537943322
|276> H  -0.882543862  -0.461741870  -2.201634322
|277> H  -2.664920862  -0.621746870  -2.238342322
|278> C  -1.823737862  -0.193167870  -0.359275322
|279> N  -1.863627862   0.324099130   0.681054678
|280> C   0.905847138  -1.059368870   2.164038678
|281> H   1.802416138  -0.442547870   2.280456678
|282> H   0.905847138  -1.843289870   2.925866678
|283> H   0.009278138  -0.442548870   2.280456678
|284> C   0.905847138  -1.657509870   0.831964678
|285> N   0.905848138  -2.130413870  -0.229995322
|286> C   0.905847138   2.389681130   0.704570678
|287> H   1.802451138   2.069968130   1.244147678
|288> H   0.009245138   2.069966130   1.244148678
|289> H   0.905846138   3.479421130   0.619041678
|290> C   0.905847138   1.785486130  -0.624765322
|291> N   0.905847138   1.305344130  -1.683181322
|292> *
|293> 
|294> 
|295> $new_job
|296> 
|297> # 4mecn.malloum.etal.dset.3mecn.dset-orca.engrad-mp2.def2tzvp
|298> ! MP2 def2-TZVP EnGrad TightSCF FrozenCore
|299> 
|300> %pal
|301>     nprocs 12
|302> end
|303> 
|304> %maxcore 8000
|305> 
|306> %scf
|307>     ConvForced true
|308> end
|309> 
|310> *xyz 0 1
|311> C  -2.689557638  -0.621257032  -1.579858157
|312> H  -3.574074638  -0.148891032  -2.014573157
|313> H  -2.630468638  -1.665211032  -1.897034157
|314> H  -1.787450638  -0.102548032  -1.917475157
|315> C  -2.750952638  -0.555109032  -0.122608157
|316> N  -2.788622638  -0.501129032   1.038035843
|317> C   2.633642362  -0.626131032  -1.579860157
|318> H   3.518146362  -1.098526032  -2.014569157
|319> H   2.574575362   0.417817968  -1.897056157
|320> H   1.731523362  -1.144826032  -1.917464157
|321> C   2.695040362  -0.692252032  -0.122609157
|322> N   2.732713362  -0.746208032   1.038035843
|323> C   0.045297362   1.250285968   1.869230843
|324> H   0.901842362   0.674550968   2.233664843
|325> H  -0.886938638   0.799889968   2.223288843
|326> H   0.116170362   2.275504968   2.241765843
|327> C   0.055295362   1.248062968   0.409080843
|328> N   0.068181362   1.243691968  -0.753205157
|329> *
|330> 
|331> 
|332> $new_job
|333> 
|334> # 4mecn.malloum.etal.dset.3mecn.dset-orca.engrad-mp2.def2tzvp
|335> ! MP2 def2-TZVP EnGrad TightSCF FrozenCore
|336> 
|337> %pal
|338>     nprocs 12
|339> end
|340> 
|341> %maxcore 8000
|342> 
|343> %scf
|344>     ConvForced true
|345> end
|346> 
|347> *xyz 0 1
|348> C  -2.633644629   0.626102714  -1.579868019
|349> H  -3.518161629   1.098468714  -2.014583019
|350> H  -2.574555629  -0.417851286  -1.897044019
|351> H  -1.731537629   1.144811714  -1.917485019
|352> C  -2.695039629   0.692250714  -0.122618019
|353> N  -2.732709629   0.746230714   1.038025981
|354> C   2.689555371   0.621228714  -1.579870019
|355> H   3.574059371   0.148833714  -2.014579019
|356> H   2.630488371   1.665177714  -1.897066019
|357> H   1.787436371   0.102533714  -1.917474019
|358> C   2.750953371   0.555107714  -0.122619019
|359> N   2.788626371   0.501151714   1.038025981
|360> C  -0.045295629  -1.250257286   1.869249981
|361> H  -0.901837629  -0.674513286   2.233674981
|362> H   0.886943371  -0.799861286   2.223297981
|363> H  -0.116173629  -2.275470286   2.241801981
|364> C  -0.055296629  -1.248058286   0.409100981
|365> N  -0.068185629  -1.243707286  -0.753185019
|366> *
|367> 
|368> 
|369> $new_job
|370> 
|371> # 4mecn.malloum.etal.dset.3mecn.dset-orca.engrad-mp2.def2tzvp
|372> ! MP2 def2-TZVP EnGrad TightSCF FrozenCore
|373> 
|374> %pal
|375>     nprocs 12
|376> end
|377> 
|378> %maxcore 8000
|379> 
|380> %scf
|381>     ConvForced true
|382> end
|383> 
|384> *xyz 0 1
|385> C  -1.757773175  -0.018068248  -1.866879425
|386> H  -2.642290175   0.454297752  -2.301594425
|387> H  -1.698684175  -1.062022248  -2.184055425
|388> H  -0.855666175   0.500640752  -2.204496425
|389> C  -1.819168175   0.048079752  -0.409629425
|390> N  -1.856838175   0.102059752   0.751014575
|391> C   0.977081825   1.853474752   1.582209575
|392> H   1.833626825   1.277739752   1.946643575
|393> H   0.044845825   1.403078752   1.936267575
|394> H   1.047954825   2.878693752   1.954744575
|395> C   0.987079825   1.851251752   0.122059575
|396> N   0.999965825   1.846880752  -1.040226425
|397> C   0.830575825  -1.894428248   1.582238575
|398> H  -0.025966175  -1.318684248   1.946663575
|399> H   1.762814825  -1.444032248   1.936286575
|400> H   0.759697825  -2.919641248   1.954790575
|401> C   0.820574825  -1.892229248   0.122089575
|402> N   0.807685825  -1.887878248  -1.040196425
|403> *
|404> 
|405> 
|406> $new_job
|407> 
|408> # 4mecn.malloum.etal.dset.3mecn.dset-orca.engrad-mp2.def2tzvp
|409> ! MP2 def2-TZVP EnGrad TightSCF FrozenCore
|410> 
|411> %pal
|412>     nprocs 12
|413> end
|414> 
|415> %maxcore 8000
|416> 
|417> %scf
|418>     ConvForced true
|419> end
|420> 
|421> *xyz 0 1
|422> C   1.757771492   0.018036423  -1.866881075
|423> H   2.642275492  -0.454358577  -2.301590075
|424> H   1.698704492   1.061985423  -2.184077075
|425> H   0.855652492  -0.500658577  -2.204485075
|426> C   1.819169492  -0.048084577  -0.409630075
|427> N   1.856842492  -0.102040577   0.751014925
|428> C  -0.830573508   1.894453423   1.582209925
|429> H   0.025971492   1.318718423   1.946643925
|430> H  -1.762809508   1.444057423   1.936267925
|431> H  -0.759700508   2.919672423   1.954744925
|432> C  -0.820575508   1.892230423   0.122059925
|433> N  -0.807689508   1.887859423  -1.040226075
|434> C  -0.977079508  -1.853449577   1.582238925
|435> H  -1.833621508  -1.277705577   1.946663925
|436> H  -0.044840508  -1.403053577   1.936286925
|437> H  -1.047957508  -2.878662577   1.954790925
|438> C  -0.987080508  -1.851250577   0.122089925
|439> N  -0.999969508  -1.846899577  -1.040196075
|440> *
|441> 
|442> 
|443> $new_job
|444> 
|445> # 4mecn.malloum.etal.dset.3mecn.dset-orca.engrad-mp2.def2tzvp
|446> ! MP2 def2-TZVP EnGrad TightSCF FrozenCore
|447> 
|448> %pal
|449>     nprocs 12
|450> end
|451> 
|452> %maxcore 8000
|453> 
|454> %scf
|455>     ConvForced true
|456> end
|457> 
|458> *xyz 0 1
|459> C   3.350095358  -1.316946295  -0.100712803
|460> H   3.699578358  -1.819225295   0.804886197
|461> H   4.066039358  -1.496967295  -0.906652803
|462> H   2.373988358  -1.720309295  -0.385547803
|463> C   3.219673358   0.117698705   0.141609197
|464> N   3.104457358   1.257981705   0.331352197
|465> C  -0.174031642   1.905500705  -0.385949803
|466> H  -0.255537642   2.379697705  -1.367422803
|467> H   0.718292358   2.283192705   0.121013197
|468> H  -1.071201642   2.131771705   0.196841197
|469> C  -0.058484642   0.459100705  -0.545376803
|470> N   0.034722358  -0.693510295  -0.665905803
|471> C  -3.056283642  -1.860222295   0.272891197
|472> H  -2.974783642  -2.334417295   1.254366197
|473> H  -2.159108642  -2.086494295  -0.309892803
|474> H  -3.948603642  -2.237916295  -0.234076803
|475> C  -3.171832642  -0.413822295   0.432315197
|476> N  -3.265040642   0.738788705   0.552841197
|477> *
|478> 
|479> 
|480> $new_job
|481> 
|482> # 4mecn.malloum.etal.dset.3mecn.dset-orca.engrad-mp2.def2tzvp
|483> ! MP2 def2-TZVP EnGrad TightSCF FrozenCore
|484> 
|485> %pal
|486>     nprocs 12
|487> end
|488> 
|489> %maxcore 8000
|490> 
|491> %scf
|492>     ConvForced true
|493> end
|494> 
|495> *xyz 0 1
|496> C   4.450573649  -1.539367904   0.112127430
|497> H   4.800056649  -2.041646904   1.017726430
|498> H   5.166517649  -1.719388904  -0.693812570
|499> H   3.474466649  -1.942730904  -0.172707570
|500> C   4.320151649  -0.104722904   0.354449430
|501> N   4.204935649   1.035560096   0.544192430
|502> C   0.926446649   1.683079096  -0.173109570
|503> H   0.844940649   2.157276096  -1.154582570
|504> H   1.818770649   2.060771096   0.333853430
|505> H   0.029276649   1.909350096   0.409681430
|506> C   1.041993649   0.236679096  -0.332536570
|507> N   1.135200649  -0.915931904  -0.453065570
|508> C  -5.479939351   1.139797096   0.200489430
|509> H  -5.829424351   1.642074096  -0.705109570
|510> H  -4.503833351   1.543164096   0.485325430
|511> H  -6.195883351   1.319816096   1.006429430
|512> C  -5.349512351  -0.294847904  -0.041830570
|513> N  -5.234291351  -1.435129904  -0.231573570
|514> *
|515> 
|516> 
|517> $new_job
|518> 
|519> # 4mecn.malloum.etal.dset.3mecn.dset-orca.engrad-mp2.def2tzvp
|520> ! MP2 def2-TZVP EnGrad TightSCF FrozenCore
|521> 
|522> %pal
|523>     nprocs 12
|524> end
|525> 
|526> %maxcore 8000
|527> 
|528> %scf
|529>     ConvForced true
|530> end
|531> 
|532> *xyz 0 1
|533> C   5.479934328  -1.139799316  -0.200491016
|534> H   5.829417328  -1.642078316   0.705107984
|535> H   6.195878328  -1.319820316  -1.006431016
|536> H   4.503827328  -1.543162316  -0.485326016
|537> C   5.349512328   0.294845684   0.041830984
|538> N   5.234296328   1.435128684   0.231573984
|539> C  -0.926444672  -1.683075316   0.173112984
|540> H  -0.844944672  -2.157270316   1.154587984
|541> H  -0.029269672  -1.909347316  -0.409671016
|542> H  -1.818764672  -2.060769316  -0.333855016
|543> C  -1.041993672  -0.236675316   0.332536984
|544> N  -1.135201672   0.915935684   0.453062984
|545> C  -4.450578672   1.539365684  -0.112129016
|546> H  -4.800063672   2.041642684  -1.017728016
|547> H  -3.474472672   1.942732684   0.172706984
|548> H  -5.166522672   1.719384684   0.693810984
|549> C  -4.320151672   0.104720684  -0.354449016
|550> N  -4.204930672  -1.035561316  -0.544192016
|551> *
|552> 
|553> 
|554> $new_job
|555> 
|556> # 4mecn.malloum.etal.dset.3mecn.dset-orca.engrad-mp2.def2tzvp
|557> ! MP2 def2-TZVP EnGrad TightSCF FrozenCore
|558> 
|559> %pal
|560>     nprocs 12
|561> end
|562> 
|563> %maxcore 8000
|564> 
|565> %scf
|566>     ConvForced true
|567> end
|568> 
|569> *xyz 0 1
|570> C   3.056285398   1.860224198  -0.272888076
|571> H   2.974779398   2.334421198  -1.254361076
|572> H   3.948609398   2.237916198   0.234074924
|573> H   2.159115398   2.086495198   0.309902924
|574> C   3.171832398   0.413824198  -0.432315076
|575> N   3.265039398  -0.738786802  -0.552844076
|576> C   0.174033398  -1.905498802   0.385952924
|577> H   0.255533398  -2.379693802   1.367427924
|578> H   1.071208398  -2.131770802  -0.196831076
|579> H  -0.718286602  -2.283192802  -0.121015076
|580> C   0.058484398  -0.459098802   0.545376924
|581> N  -0.034723602   0.693512198   0.665902924
|582> C  -3.350100602   1.316942198   0.100710924
|583> H  -3.699585602   1.819219198  -0.804888076
|584> H  -2.373994602   1.720309198   0.385546924
|585> H  -4.066044602   1.496961198   0.906650924
|586> C  -3.219673602  -0.117702802  -0.141609076
|587> N  -3.104452602  -1.257984802  -0.331352076
|588> *
|589> 
|590> 
|591> $new_job
|592> 
|593> # 4mecn.malloum.etal.dset.3mecn.dset-orca.engrad-mp2.def2tzvp
|594> ! MP2 def2-TZVP EnGrad TightSCF FrozenCore
|595> 
|596> %pal
|597>     nprocs 12
|598> end
|599> 
|600> %maxcore 8000
|601> 
|602> %scf
|603>     ConvForced true
|604> end
|605> 
|606> *xyz 0 1
|607> C  -0.462368612  -2.940121353  -1.570848453
|608> H  -1.466289612  -2.977719353  -2.001401453
|609> H   0.093951388  -3.825274353  -1.889669453
|610> H   0.051639388  -2.041882353  -1.924959453
|611> C  -0.543892612  -2.898599353  -0.112833453
|612> N  -0.603963612  -2.857468353   1.046344547
|613> C   1.140093388   0.016519647   1.855737547
|614> H   2.173638388  -0.022790353   2.211503547
|615> H   0.589036388  -0.857971353   2.213568547
|616> H   0.657829388   0.931578647   2.211464547
|617> C   1.138907388   0.014812647   0.397044547
|618> N   1.137469388   0.013477647  -0.766940453
|619> C  -0.684085612   2.834429647  -1.573641453
|620> H  -1.729839612   2.767380647  -1.884369453
|621> H  -0.143689612   1.951207647  -1.926254453
|622> H  -0.240064612   3.731341647  -2.012997453
|623> C  -0.597959612   2.895182647  -0.116565453
|624> N  -0.524534612   2.935440647   1.041873547
|625> *
|626> 
|627> 
|628> $new_job
|629> 
|630> # 4mecn.malloum.etal.dset.3mecn.dset-orca.engrad-mp2.def2tzvp
|631> ! MP2 def2-TZVP EnGrad TightSCF FrozenCore
|632> 
|633> %pal
|634>     nprocs 12
|635> end
|636> 
|637> %maxcore 8000
|638> 
|639> %scf
|640>     ConvForced true
|641> end
|642> 
|643> *xyz 0 1
|644> C  -2.163572476  -1.996574256  -1.568600988
|645> H  -3.167493476  -2.034172256  -1.999153988
|646> H  -1.607252476  -2.881727256  -1.887421988
|647> H  -1.649564476  -1.098335256  -1.922711988
|648> C  -2.245096476  -1.955052256  -0.110585988
|649> N  -2.305167476  -1.913921256   1.048592012
|650> C  -0.561110476   0.960066744   1.857985012
|651> H   0.472434524   0.920756744   2.213751012
|652> H  -1.112167476   0.085575744   2.215816012
|653> H  -1.043374476   1.875125744   2.213712012
|654> C  -0.562296476   0.958359744   0.399292012
|655> N  -0.563734476   0.957024744  -0.764692988
|656> C   2.792431524   1.081576744  -1.578802988
|657> H   3.336412524   0.238233744  -2.011807988
|658> H   3.269102524   2.012359744  -1.896707988
|659> H   1.757128524   1.065758744  -1.931274988
|660> C   2.800736524   0.987627744  -0.120975988
|661> N   2.798154524   0.912815744   1.038071012
|662> *
|663> 
|664> 
|665> $new_job
|666> 
|667> # 4mecn.malloum.etal.dset.3mecn.dset-orca.engrad-mp2.def2tzvp
|668> ! MP2 def2-TZVP EnGrad TightSCF FrozenCore
|669> 
|670> %pal
|671>     nprocs 12
|672> end
|673> 
|674> %maxcore 8000
|675> 
|676> %scf
|677>     ConvForced true
|678> end
|679> 
|680> *xyz 0 1
|681> C  -1.581969154  -2.953356517  -1.287827496
|682> H  -2.585890154  -2.990954517  -1.718380496
|683> H  -1.025649154  -3.838509517  -1.606648496
|684> H  -1.067961154  -2.055117517  -1.641938496
|685> C  -1.663493154  -2.911834517   0.170187504
|686> N  -1.723564154  -2.870703517   1.329365504
|687> C  -1.803686154   2.821194483  -1.290620496
|688> H  -2.849440154   2.754145483  -1.601348496
|689> H  -1.263290154   1.937972483  -1.643233496
|690> H  -1.359665154   3.718106483  -1.729976496
|691> C  -1.717560154   2.881947483   0.166455504
|692> N  -1.644135154   2.922205483   1.324894504
|693> C   3.374034846   0.124794483  -1.298029496
|694> H   3.918015846  -0.718548517  -1.731034496
|695> H   3.850705846   1.055577483  -1.615934496
|696> H   2.338731846   0.108976483  -1.650501496
|697> C   3.382339846   0.030845483   0.159797504
|698> N   3.379757846  -0.043966517   1.318844504
|699> *
|700> 
|701> 
|702> $new_job
|703> 
|704> # 4mecn.malloum.etal.dset.3mecn.dset-orca.engrad-mp2.def2tzvp
|705> ! MP2 def2-TZVP EnGrad TightSCF FrozenCore
|706> 
|707> %pal
|708>     nprocs 12
|709> end
|710> 
|711> %maxcore 8000
|712> 
|713> %scf
|714>     ConvForced true
|715> end
|716> 
|717> *xyz 0 1
|718> C  -0.536760397  -0.968510938   1.859191987
|719> H   0.496784603  -1.007820938   2.214957987
|720> H  -1.087817397  -1.843001938   2.217022987
|721> H  -1.019024397  -0.053451938   2.214918987
|722> C  -0.537946397  -0.970217938   0.400498987
|723> N  -0.539384397  -0.971552938  -0.763486013
|724> C  -2.360939397   1.849399062  -1.570187013
|725> H  -3.406693397   1.782350062  -1.880915013
|726> H  -1.820543397   0.966177062  -1.922800013
|727> H  -1.916918397   2.746311062  -2.009543013
|728> C  -2.274813397   1.910152062  -0.113111013
|729> N  -2.201388397   1.950410062   1.045327987
|730> C   2.816781603  -0.847000938  -1.577596013
|731> H   3.360762603  -1.690343938  -2.010601013
|732> H   3.293452603   0.083782062  -1.895501013
|733> H   1.781478603  -0.862818938  -1.930068013
|734> C   2.825086603  -0.940949938  -0.119769013
|735> N   2.822504603  -1.015761938   1.039277987
|736> *
|737> 
|738> 
|739> $new_job
|740> 
|741> # 4mecn.malloum.etal.dset.3mecn.dset-orca.engrad-mp2.def2tzvp
|742> ! MP2 def2-TZVP EnGrad TightSCF FrozenCore
|743> 
|744> %pal
|745>     nprocs 12
|746> end
|747> 
|748> %maxcore 8000
|749> 
|750> %scf
|751>     ConvForced true
|752> end
|753> 
|754> *xyz 0 1
|755> C  -3.964183282   0.876248989   0.004025711
|756> H  -4.511309282   1.205293989  -0.883305289
|757> H  -2.969693282   1.333596989   0.001139711
|758> H  -4.505498282   1.203921989   0.895420711
|759> C  -3.850171282  -0.579520011   0.002537711
|760> N  -3.760111282  -1.737348011   0.001404711
|761> C   1.814567718   2.501574989  -0.006945289
|762> H   2.271943718   1.507098989  -0.003976289
|763> H   2.143702718   3.048832989   0.880271711
|764> H   2.142124718   3.042773989  -0.898453289
|765> C   0.358802718   2.387527989  -0.005274289
|766> N  -0.799022282   2.297431989  -0.003995289
|767> C   3.439920718  -3.277112011   0.004171711
|768> H   3.987169718  -3.606241011  -0.883052289
|769> H   2.445420718  -3.734436011   0.001178711
|770> H   3.981094718  -3.604730011   0.895672711
|771> C   3.325948718  -1.821340011   0.002555711
|772> N   3.235922718  -0.663509011   0.001319711
|773> *
|774> 
|775> 
|776> $new_job
|777> 
|778> # 4mecn.malloum.etal.dset.3mecn.dset-orca.engrad-mp2.def2tzvp
|779> ! MP2 def2-TZVP EnGrad TightSCF FrozenCore
|780> 
|781> %pal
|782>     nprocs 12
|783> end
|784> 
|785> %maxcore 8000
|786> 
|787> %scf
|788>     ConvForced true
|789> end
|790> 
|791> *xyz 0 1
|792> C  -2.501606680   1.814581306   0.006764283
|793> H  -3.048732680   2.143626306  -0.880566717
|794> H  -1.507116680   2.271929306   0.003878283
|795> H  -3.042921680   2.142254306   0.898159283
|796> C  -2.387594680   0.358812306   0.005276283
|797> N  -2.297534680  -0.799015694   0.004143283
|798> C   3.277144320   3.439907306  -0.004206717
|799> H   3.734520320   2.445431306  -0.001237717
|800> H   3.606279320   3.987165306   0.883010283
|801> H   3.604701320   3.981106306  -0.895714717
|802> C   1.821379320   3.325860306  -0.002535717
|803> N   0.663554320   3.235764306  -0.001256717
|804> C  -0.876220680  -3.964130694  -0.003911717
|805> H  -1.333587680  -2.969650694  -0.001035717
|806> H  -1.205185680  -4.511221694   0.883470283
|807> H  -1.203954680  -4.505491694  -0.895255717
|808> C   0.579546320  -3.850094694  -0.002545717
|809> N   1.737373320  -3.760016694  -0.001511717
|810> *
|811> 
|812> 
|813> $new_job
|814> 
|815> # 4mecn.malloum.etal.dset.3mecn.dset-orca.engrad-mp2.def2tzvp
|816> ! MP2 def2-TZVP EnGrad TightSCF FrozenCore
|817> 
|818> %pal
|819>     nprocs 12
|820> end
|821> 
|822> %maxcore 8000
|823> 
|824> %scf
|825>     ConvForced true
|826> end
|827> 
|828> *xyz 0 1
|829> C  -3.439956561   3.277122774   0.004017746
|830> H  -3.987082561   3.606167774  -0.883313254
|831> H  -2.445466561   3.734470774   0.001131746
|832> H  -3.981271561   3.604795774   0.895412746
|833> C  -3.325944561   1.821353774   0.002529746
|834> N  -3.235884561   0.663525774   0.001396746
|835> C   3.964147439  -0.876238226   0.004163746
|836> H   4.511396439  -1.205367226  -0.883060254
|837> H   2.969647439  -1.333562226   0.001170746
|838> H   4.505321439  -1.203856226   0.895664746
|839> C   3.850175439   0.579533774   0.002547746
|840> N   3.760149439   1.737364774   0.001311746
|841> C  -1.814570561  -2.501589226  -0.006658254
|842> H  -2.271937561  -1.507109226  -0.003782254
|843> H  -2.143535561  -3.048680226   0.880723746
|844> H  -2.142304561  -3.042950226  -0.898002254
|845> C  -0.358803561  -2.387553226  -0.005292254
|846> N   0.799023439  -2.297475226  -0.004258254
|847> *
|848> 
|849> 
|850> $new_job
|851> 
|852> # 4mecn.malloum.etal.dset.3mecn.dset-orca.engrad-mp2.def2tzvp
|853> ! MP2 def2-TZVP EnGrad TightSCF FrozenCore
|854> 
|855> %pal
|856>     nprocs 12
|857> end
|858> 
|859> %maxcore 8000
|860> 
|861> %scf
|862>     ConvForced true
|863> end
|864> 
|865> *xyz 0 1
|866> C   0.876218259   3.964130021  -0.004217495
|867> H   1.333594259   2.969654021  -0.001248495
|868> H   1.205353259   4.511388021   0.882999505
|869> H   1.203775259   4.505329021  -0.895725495
|870> C  -0.579546741   3.850083021  -0.002546495
|871> N  -1.737371741   3.759987021  -0.001267495
|872> C   2.501571259  -1.814556979   0.006899505
|873> H   3.048820259  -2.143685979  -0.880324495
|874> H   1.507071259  -2.271880979   0.003906505
|875> H   3.042745259  -2.142174979   0.898400505
|876> C   2.387599259  -0.358784979   0.005283505
|877> N   2.297573259   0.799046021   0.004047505
|878> C  -3.277146741  -3.439907979  -0.003922495
|879> H  -3.734513741  -2.445427979  -0.001046495
|880> H  -3.606111741  -3.986998979   0.883459505
|881> H  -3.604880741  -3.981268979  -0.895266495
|882> C  -1.821379741  -3.325871979  -0.002556495
|883> N  -0.663552741  -3.235793979  -0.001522495
|884> *
|885> 
|886>                          ****END OF INPUT****
================================================================================


                 $$$$$$$$$$$$$$$$$$$$$$$$$$$$$$$$$$$$$$$$$$$$$$ 
                 $ THERE ARE 24 JOBS TO BE PROCESSED THIS RUN $
                 $$$$$$$$$$$$$$$$$$$$$$$$$$$$$$$$$$$$$$$$$$$$$$ 




                 $$$$$$$$$$$$$$$$  JOB NUMBER  1 $$$$$$$$$$$$$$


                     *******************************
                     * Energy+Gradient Calculation *
                     *******************************

---------------------------------
CARTESIAN COORDINATES (ANGSTROEM)
---------------------------------
  C     -1.206721   -2.695609   -0.456190
  H     -1.165713   -2.603454    0.633113
  H     -0.404602   -3.362849   -0.779716
  H     -2.176579   -3.100045   -0.757246
  C     -1.012301   -1.374935   -1.047698
  N     -0.873378   -0.321039   -1.517946
  C      2.245936    0.368755   -1.890369
  H      1.443816    0.692278   -2.557609
  H      2.204932   -0.720549   -1.798213
  H      3.215793    0.669813   -2.294805
  C      2.051515    0.960263   -0.569696
  N      1.912589    1.430511    0.484200
  C     -1.206727    1.802926    1.173993
  H     -1.165721    1.710770    0.084689
  H     -0.404610    2.470169    1.497518
  H     -2.176586    2.207358    1.475050
  C     -1.012302    0.482253    1.765501
  N     -0.873374   -0.571642    2.235749

----------------------------
CARTESIAN COORDINATES (A.U.)
----------------------------
  NO LB      ZA    FRAG     MASS         X           Y           Z
   0 C     6.0000    0    12.011   -2.280373   -5.093964   -0.862073
   1 H     1.0000    0     1.008   -2.202879   -4.919816    1.196411
   2 H     1.0000    0     1.008   -0.764587   -6.354865   -1.473449
   3 H     1.0000    0     1.008   -4.113139   -5.858237   -1.430987
   4 C     6.0000    0    12.011   -1.912972   -2.598251   -1.979862
   5 N     7.0000    0    14.007   -1.650446   -0.606677   -2.868501
   6 C     6.0000    0    12.011    4.244203    0.696845   -3.572279
   7 H     1.0000    0     1.008    2.728416    1.308215   -4.833180
   8 H     1.0000    0     1.008    4.166717   -1.361641   -3.398129
   9 H     1.0000    0     1.008    6.076968    1.265762   -4.336552
  10 C     6.0000    0    12.011    3.876801    1.814633   -1.076569
  11 N     7.0000    0    14.007    3.614269    2.703273    0.915006
  12 C     6.0000    0    12.011   -2.280384    3.407035    2.218526
  13 H     1.0000    0     1.008   -2.202894    3.232886    0.160040
  14 H     1.0000    0     1.008   -0.764603    4.667942    2.829900
  15 H     1.0000    0     1.008   -4.113152    4.171301    2.787441
  16 C     6.0000    0    12.011   -1.912974    0.911325    3.336314
  17 N     7.0000    0    14.007   -1.650438   -1.080248    4.224954

--------------------------------
INTERNAL COORDINATES (ANGSTROEM)
--------------------------------
 C      0   0   0     0.000000000000     0.00000000     0.00000000
 H      1   0   0     1.093963082511     0.00000000     0.00000000
 H      1   2   0     1.092370441030   108.59259146     0.00000000
 H      1   2   3     1.093081759703   109.79613753   120.44813632
 C      1   2   3     1.460089266018   108.79629385   240.81986660
 N      5   1   2     1.162380987563   179.20811918   270.87083246
 C      6   5   1     3.216307585409   110.92879470   175.35002040
 H      7   6   5     1.092370286821    54.69680103   146.31883427
 H      7   6   5     1.093964012556    74.95010131    19.80905092
 H      7   6   5     1.093081423275   164.24323602   129.59509960
 C      7   6   5     1.460088494658    81.54732340   267.64434627
 N     11   7   6     1.162381346115   179.20822020   159.98694881
 C     12  11   7     3.216308384302   110.92886158   184.65201639
 H     13  12  11     1.093964087522    74.95003042   340.19093251
 H     13  12  11     1.092370508739    54.69691105   213.68110118
 H     13  12  11     1.093081442416   164.24332980   230.40494852
 C     13  12  11     1.460089027292    81.54729294    92.35563552
 N     17  13  12     1.162380678484   179.20817018   200.01114208

---------------------------
INTERNAL COORDINATES (A.U.)
---------------------------
 C      0   0   0     0.000000000000     0.00000000     0.00000000
 H      1   0   0     2.067290626567     0.00000000     0.00000000
 H      1   2   0     2.064280970338   108.59259146     0.00000000
 H      1   2   3     2.065625167824   109.79613753   120.44813632
 C      1   2   3     2.759168843851   108.79629385   240.81986660
 N      5   1   2     2.196581729772   179.20811918   270.87083246
 C      6   5   1     6.077940498877   110.92879470   175.35002040
 H      7   6   5     2.064280678924    54.69680103   146.31883427
 H      7   6   5     2.067292384097    74.95010131    19.80905092
 H      7   6   5     2.065624532067   164.24323602   129.59509960
 C      7   6   5     2.759167386194    81.54732340   267.64434627
 N     11   7   6     2.196582407336   179.20822020   159.98694881
 C     12  11   7     6.077942008565   110.92886158   184.65201639
 H     13  12  11     2.067292525762    74.95003042   340.19093251
 H     13  12  11     2.064281098289    54.69691105   213.68110118
 H     13  12  11     2.065624568238   164.24332980   230.40494852
 C     13  12  11     2.759168392725    81.54729294    92.35563552
 N     17  13  12     2.196581145696   179.20817018   200.01114208

---------------------
BASIS SET INFORMATION
---------------------
There are 3 groups of distinct atoms

 Group   1 Type C   : 11s6p2d1f contracted to 5s3p2d1f pattern {62111/411/11/1}
 Group   2 Type H   : 5s1p contracted to 3s1p pattern {311/1}
 Group   3 Type N   : 11s6p2d1f contracted to 5s3p2d1f pattern {62111/411/11/1}

Atom   0C    basis set group =>   1
Atom   1H    basis set group =>   2
Atom   2H    basis set group =>   2
Atom   3H    basis set group =>   2
Atom   4C    basis set group =>   1
Atom   5N    basis set group =>   3
Atom   6C    basis set group =>   1
Atom   7H    basis set group =>   2
Atom   8H    basis set group =>   2
Atom   9H    basis set group =>   2
Atom  10C    basis set group =>   1
Atom  11N    basis set group =>   3
Atom  12C    basis set group =>   1
Atom  13H    basis set group =>   2
Atom  14H    basis set group =>   2
Atom  15H    basis set group =>   2
Atom  16C    basis set group =>   1
Atom  17N    basis set group =>   3


           ************************************************************
           *        Program running with 12 parallel MPI-processes    *
           *              working on a common directory               *
           ************************************************************
------------------------------------------------------------------------------
                           ORCA GTO INTEGRAL CALCULATION
------------------------------------------------------------------------------

                         BASIS SET STATISTICS AND STARTUP INFO

 # of primitive gaussian shells          ...  234
 # of primitive gaussian functions       ...  486
 # of contracted shells                  ...  135
 # of contracted basis functions         ...  333
 Highest angular momentum                ...    3
 Maximum contraction depth               ...    6
 Integral package used                   ... LIBINT
 Integral threshhold            Thresh   ...  2.500e-11
 Primitive cut-off              TCut     ...  2.500e-12


------------------------------ INTEGRAL EVALUATION ----------------------------


 * One electron integrals 
 Pre-screening matrix                    ... done
 Shell pair data                         ... done (   0.002 sec)



           ************************************************************
           *        Program running with 12 parallel MPI-processes    *
           *              working on a common directory               *
           ************************************************************
-------------------------------------------------------------------------------
                                 ORCA SCF
-------------------------------------------------------------------------------

------------
SCF SETTINGS
------------
Hamiltonian:
 Ab initio Hamiltonian  Method          .... Hartree-Fock(GTOs)


General Settings:
 Integral files         IntName         .... 4mecn.malloum.etal.dset.3mecn.dset-orca.engrad-mp2.def2tzvp
 Hartree-Fock type      HFTyp           .... RHF
 Total Charge           Charge          ....    0
 Multiplicity           Mult            ....    1
 Number of Electrons    NEL             ....   66
 Basis Dimension        Dim             ....  333
 Nuclear Repulsion      ENuc            ....    366.8478800189 Eh

Convergence Acceleration:
 DIIS                   CNVDIIS         .... on
   Start iteration      DIISMaxIt       ....    12
   Startup error        DIISStart       ....  0.200000
   # of expansion vecs  DIISMaxEq       ....     5
   Bias factor          DIISBfac        ....   1.050
   Max. coefficient     DIISMaxC        ....  10.000
 Newton-Raphson         CNVNR           .... off
 SOSCF                  CNVSOSCF        .... on
   Start iteration      SOSCFMaxIt      ....   150
   Startup grad/error   SOSCFStart      ....  0.003300
 Level Shifting         CNVShift        .... on
   Level shift para.    LevelShift      ....    0.2500
   Turn off err/grad.   ShiftErr        ....    0.0010
 Zerner damping         CNVZerner       .... off
 Static damping         CNVDamp         .... on
   Fraction old density DampFac         ....    0.7000
   Max. Damping (<1)    DampMax         ....    0.9800
   Min. Damping (>=0)   DampMin         ....    0.0000
   Turn off err/grad.   DampErr         ....    0.1000
 Fernandez-Rico         CNVRico         .... off

SCF Procedure:
 Maximum # iterations   MaxIter         ....   125
 SCF integral mode      SCFMode         .... Direct
   Integral package                     .... LIBINT
 Reset frequency        DirectResetFreq ....    20
 Integral Threshold     Thresh          ....  2.500e-11 Eh
 Primitive CutOff       TCut            ....  2.500e-12 Eh

Convergence Tolerance:
 Convergence Check Mode ConvCheckMode   .... Total+1el-Energy
 Convergence forced     ConvForced      .... 1
 Energy Change          TolE            ....  1.000e-08 Eh
 1-El. energy change                    ....  1.000e-05 Eh
 Orbital Gradient       TolG            ....  1.000e-05
 Orbital Rotation angle TolX            ....  1.000e-05
 DIIS Error             TolErr          ....  5.000e-07


Diagonalization of the overlap matrix:
Smallest eigenvalue                        ... 1.562e-04
Time for diagonalization                   ...    0.012 sec
Threshold for overlap eigenvalues          ... 1.000e-08
Number of eigenvalues below threshold      ... 0
Time for construction of square roots      ...    0.008 sec
Total time needed                          ...    0.021 sec

-------------------
DFT GRID GENERATION
-------------------

General Integration Accuracy     IntAcc      ...  4.340
Radial Grid Type                 RadialGrid  ... Gauss-Chebyshev
Angular Grid (max. acc.)         AngularGrid ... Lebedev-110
Angular grid pruning method      GridPruning ... 3 (G Style)
Weight generation scheme         WeightScheme... Becke
Basis function cutoff            BFCut       ...    1.0000e-11
Integration weight cutoff        WCut        ...    1.0000e-14
Grids for H and He will be reduced by one unit

# of grid points (after initial pruning)     ...  22188 (   0.0 sec)
# of grid points (after weights+screening)   ...  20713 (   0.0 sec)
nearest neighbour list constructed           ...    0.0 sec
Grid point re-assignment to atoms done       ...    0.0 sec
Grid point division into batches done        ...    0.0 sec
Reduced shell lists constructed in    0.0 sec

Total number of grid points                  ...    20713
Total number of batches                      ...      333
Average number of points per batch           ...       62
Average number of grid points per atom       ...     1151
Average number of shells per batch           ...    76.66 (56.78%)
Average number of basis functions per batch  ...   186.38 (55.97%)
Average number of large shells per batch     ...    56.72 (74.00%)
Average number of large basis fcns per batch ...   133.83 (71.80%)
Maximum spatial batch extension              ...  21.32, 16.14, 18.49 au
Average spatial batch extension              ...   0.28,  0.25,  0.26 au

Time for grid setup =    0.051 sec

------------------------------
INITIAL GUESS: MODEL POTENTIAL
------------------------------
Loading Hartree-Fock densities                     ... done
Calculating cut-offs                               ... done
Setting up the integral package                    ... done
Initializing the effective Hamiltonian             ... done
Starting the Coulomb interaction                   ... done (   0.0 sec)
Reading the grid                                   ... done
Mapping shells                                     ... done
Starting the XC term evaluation                    ... done (   0.0 sec)
Transforming the Hamiltonian                       ... done (   0.0 sec)
Diagonalizing the Hamiltonian                      ... done (   0.0 sec)
Back transforming the eigenvectors                 ... done (   0.0 sec)
Now organizing SCF variables                       ... done
                      ------------------
                      INITIAL GUESS DONE (   0.2 sec)
                      ------------------
--------------
SCF ITERATIONS
--------------
ITER       Energy         Delta-E        Max-DP      RMS-DP      [F,P]     Damp
               ***  Starting incremental Fock matrix formation  ***
  0   -395.4603115112   0.000000000000 0.03671099  0.00083276  0.2672582 0.7000
  1   -395.6289046970  -0.168593185761 0.02621586  0.00065525  0.1876443 0.7000
                               ***Turning on DIIS***
  2   -395.7282505547  -0.099345857775 0.01562421  0.00044203  0.1417777 0.7000
  3   -396.7019892794  -0.973738724624 0.00957239  0.00029716  0.1053085 0.7000
  4   -396.6383046570   0.063684622394 0.02452743  0.00072649  0.0742482 0.0000
  5   -395.9620115308   0.676293126194 0.00484492  0.00010747  0.0056157 0.0000
                      *** Initiating the SOSCF procedure ***
                           *** Shutting down DIIS ***
                      *** Re-Reading the Fockian *** 
                      *** Removing any level shift *** 
ITER      Energy       Delta-E        Grad      Rot      Max-DP    RMS-DP
  6   -395.94132834   0.0206831955  0.001190  0.001190  0.003402  0.000065
               *** Restarting incremental Fock matrix formation ***
  7   -395.93347006   0.0078582727  0.000470  0.000739  0.002194  0.000045
  8   -395.93348894  -0.0000188793  0.000282  0.000503  0.001920  0.000037
  9   -395.93349353  -0.0000045883  0.000096  0.000127  0.000556  0.000010
 10   -395.93349407  -0.0000005410  0.000018  0.000031  0.000066  0.000001
 11   -395.93349410  -0.0000000245  0.000010  0.000043  0.000035  0.000001
 12   -395.93349411  -0.0000000101  0.000006  0.000010  0.000029  0.000000
 13   -395.93349411  -0.0000000023  0.000004  0.000004  0.000009  0.000000
                  ***Gradient check signals convergence***
              ***Rediagonalizing the Fockian in SOSCF/NRSCF***

               *****************************************************
               *                     SUCCESS                       *
               *           SCF CONVERGED AFTER  14 CYCLES          *
               *****************************************************


----------------
TOTAL SCF ENERGY
----------------

Total Energy       :         -395.93349411 Eh          -10773.89811 eV

Components:
Nuclear Repulsion  :          366.84788002 Eh            9982.43831 eV
Electronic Energy  :         -762.78137413 Eh          -20756.33642 eV
One Electron Energy:        -1263.12274940 Eh          -34371.31742 eV
Two Electron Energy:          500.34137527 Eh           13614.98099 eV

Virial components:
Potential Energy   :         -791.08983302 Eh          -21526.64875 eV
Kinetic Energy     :          395.15633891 Eh           10752.75064 eV
Virial Ratio       :            2.00196670


---------------
SCF CONVERGENCE
---------------

  Last Energy change         ...   -3.9695e-09  Tolerance :   1.0000e-08
  Last MAX-Density change    ...    3.2528e-06  Tolerance :   1.0000e-07
  Last RMS-Density change    ...    5.1955e-08  Tolerance :   5.0000e-09
  Last Orbital Gradient      ...    1.3380e-06  Tolerance :   1.0000e-05
  Last Orbital Rotation      ...    2.3496e-06  Tolerance :   1.0000e-05

             **** THE GBW FILE WAS UPDATED (4mecn.malloum.etal.dset.3mecn.dset-orca.engrad-mp2.def2tzvp.gbw) ****
             **** DENSITY FILE WAS UPDATED (4mecn.malloum.etal.dset.3mecn.dset-orca.engrad-mp2.def2tzvp.scfp) ****
             **** ENERGY FILE WAS UPDATED (4mecn.malloum.etal.dset.3mecn.dset-orca.engrad-mp2.def2tzvp.en.tmp) ****
             **** THE GBW FILE WAS UPDATED (4mecn.malloum.etal.dset.3mecn.dset-orca.engrad-mp2.def2tzvp.gbw) ****
             **** DENSITY FILE WAS UPDATED (4mecn.malloum.etal.dset.3mecn.dset-orca.engrad-mp2.def2tzvp.scfp) ****
----------------
ORBITAL ENERGIES
----------------

  NO   OCC          E(Eh)            E(eV) 
   0   2.0000     -15.576404      -423.8555 
   1   2.0000     -15.564596      -423.5342 
   2   2.0000     -15.554952      -423.2718 
   3   2.0000     -11.289895      -307.2137 
   4   2.0000     -11.278939      -306.9155 
   5   2.0000     -11.275473      -306.8212 
   6   2.0000     -11.274047      -306.7824 
   7   2.0000     -11.268397      -306.6287 
   8   2.0000     -11.257277      -306.3261 
   9   2.0000      -1.225316       -33.3426 
  10   2.0000      -1.211073       -32.9550 
  11   2.0000      -1.202661       -32.7261 
  12   2.0000      -1.037536       -28.2328 
  13   2.0000      -1.030071       -28.0297 
  14   2.0000      -1.015736       -27.6396 
  15   2.0000      -0.696357       -18.9488 
  16   2.0000      -0.687847       -18.7173 
  17   2.0000      -0.674568       -18.3559 
  18   2.0000      -0.630462       -17.1557 
  19   2.0000      -0.626408       -17.0454 
  20   2.0000      -0.622284       -16.9332 
  21   2.0000      -0.618432       -16.8284 
  22   2.0000      -0.607803       -16.5392 
  23   2.0000      -0.602576       -16.3969 
  24   2.0000      -0.563106       -15.3229 
  25   2.0000      -0.550045       -14.9675 
  26   2.0000      -0.543906       -14.8004 
  27   2.0000      -0.469152       -12.7663 
  28   2.0000      -0.467685       -12.7264 
  29   2.0000      -0.456015       -12.4088 
  30   2.0000      -0.452947       -12.3253 
  31   2.0000      -0.444948       -12.1077 
  32   2.0000      -0.443100       -12.0574 
  33   0.0000       0.114742         3.1223 
  34   0.0000       0.147313         4.0086 
  35   0.0000       0.155339         4.2270 
  36   0.0000       0.168252         4.5784 
  37   0.0000       0.169304         4.6070 
  38   0.0000       0.176559         4.8044 
  39   0.0000       0.188224         5.1218 
  40   0.0000       0.193483         5.2650 
  41   0.0000       0.199535         5.4296 
  42   0.0000       0.209222         5.6932 
  43   0.0000       0.213227         5.8022 
  44   0.0000       0.220638         6.0039 
  45   0.0000       0.223517         6.0822 
  46   0.0000       0.241208         6.5636 
  47   0.0000       0.246465         6.7067 
  48   0.0000       0.252429         6.8689 
  49   0.0000       0.273445         7.4408 
  50   0.0000       0.279067         7.5938 
  51   0.0000       0.281775         7.6675 
  52   0.0000       0.293766         7.9938 
  53   0.0000       0.315953         8.5975 
  54   0.0000       0.322655         8.7799 
  55   0.0000       0.328075         8.9274 
  56   0.0000       0.337649         9.1879 
  57   0.0000       0.340886         9.2760 
  58   0.0000       0.367957        10.0126 
  59   0.0000       0.376707        10.2507 
  60   0.0000       0.378209        10.2916 
  61   0.0000       0.417867        11.3707 
  62   0.0000       0.441685        12.0189 
  63   0.0000       0.452128        12.3030 
  64   0.0000       0.458473        12.4757 
  65   0.0000       0.479951        13.0601 
  66   0.0000       0.485289        13.2054 
  67   0.0000       0.508940        13.8490 
  68   0.0000       0.519010        14.1230 
  69   0.0000       0.529680        14.4133 
  70   0.0000       0.530823        14.4444 
  71   0.0000       0.543104        14.7786 
  72   0.0000       0.557094        15.1593 
  73   0.0000       0.567659        15.4468 
  74   0.0000       0.572043        15.5661 
  75   0.0000       0.599188        16.3047 
  76   0.0000       0.607027        16.5180 
  77   0.0000       0.616364        16.7721 
  78   0.0000       0.626017        17.0348 
  79   0.0000       0.632043        17.1988 
  80   0.0000       0.637124        17.3370 
  81   0.0000       0.644006        17.5243 
  82   0.0000       0.647313        17.6143 
  83   0.0000       0.672347        18.2955 
  84   0.0000       0.688296        18.7295 
  85   0.0000       0.698067        18.9954 
  86   0.0000       0.709305        19.3012 
  87   0.0000       0.717659        19.5285 
  88   0.0000       0.731236        19.8979 
  89   0.0000       0.746825        20.3222 
  90   0.0000       0.751630        20.4529 
  91   0.0000       0.756522        20.5860 
  92   0.0000       0.791176        21.5290 
  93   0.0000       0.814663        22.1681 
  94   0.0000       0.819576        22.3018 
  95   0.0000       0.836012        22.7490 
  96   0.0000       0.854409        23.2497 
  97   0.0000       0.877278        23.8720 
  98   0.0000       0.893169        24.3044 
  99   0.0000       0.901883        24.5415 
 100   0.0000       0.920021        25.0350 
 101   0.0000       0.927661        25.2429 
 102   0.0000       0.945755        25.7353 
 103   0.0000       0.947363        25.7790 
 104   0.0000       0.958770        26.0894 
 105   0.0000       0.981458        26.7068 
 106   0.0000       0.998149        27.1610 
 107   0.0000       1.047432        28.5021 
 108   0.0000       1.071357        29.1531 
 109   0.0000       1.085055        29.5258 
 110   0.0000       1.102143        29.9908 
 111   0.0000       1.139437        31.0057 
 112   0.0000       1.149448        31.2781 
 113   0.0000       1.159416        31.5493 
 114   0.0000       1.169057        31.8116 
 115   0.0000       1.205885        32.8138 
 116   0.0000       1.218269        33.1508 
 117   0.0000       1.329584        36.1798 
 118   0.0000       1.333263        36.2799 
 119   0.0000       1.349222        36.7142 
 120   0.0000       1.395677        37.9783 
 121   0.0000       1.415983        38.5308 
 122   0.0000       1.421757        38.6880 
 123   0.0000       1.425498        38.7898 
 124   0.0000       1.436857        39.0989 
 125   0.0000       1.449115        39.4324 
 126   0.0000       1.466108        39.8948 
 127   0.0000       1.472444        40.0672 
 128   0.0000       1.484466        40.3944 
 129   0.0000       1.490728        40.5648 
 130   0.0000       1.503010        40.8990 
 131   0.0000       1.517605        41.2961 
 132   0.0000       1.520012        41.3616 
 133   0.0000       1.532933        41.7132 
 134   0.0000       1.553784        42.2806 
 135   0.0000       1.566219        42.6190 
 136   0.0000       1.595765        43.4230 
 137   0.0000       1.633495        44.4496 
 138   0.0000       1.721125        46.8342 
 139   0.0000       1.731124        47.1063 
 140   0.0000       1.735668        47.2299 
 141   0.0000       1.754197        47.7341 
 142   0.0000       1.763366        47.9836 
 143   0.0000       1.766587        48.0713 
 144   0.0000       1.778106        48.3847 
 145   0.0000       1.786954        48.6255 
 146   0.0000       1.793559        48.8052 
 147   0.0000       1.803863        49.0856 
 148   0.0000       1.816759        49.4365 
 149   0.0000       1.828686        49.7611 
 150   0.0000       1.831937        49.8495 
 151   0.0000       1.836600        49.9764 
 152   0.0000       1.850695        50.3600 
 153   0.0000       1.868153        50.8350 
 154   0.0000       1.880605        51.1739 
 155   0.0000       1.908486        51.9325 
 156   0.0000       1.950168        53.0668 
 157   0.0000       1.964231        53.4494 
 158   0.0000       1.972322        53.6696 
 159   0.0000       1.982763        53.9537 
 160   0.0000       1.994566        54.2749 
 161   0.0000       2.017802        54.9072 
 162   0.0000       2.027582        55.1733 
 163   0.0000       2.052820        55.8601 
 164   0.0000       2.067291        56.2538 
 165   0.0000       2.226001        60.5726 
 166   0.0000       2.238781        60.9203 
 167   0.0000       2.249469        61.2112 
 168   0.0000       2.256856        61.4122 
 169   0.0000       2.264541        61.6213 
 170   0.0000       2.267677        61.7066 
 171   0.0000       2.288467        62.2724 
 172   0.0000       2.293455        62.4081 
 173   0.0000       2.316759        63.0422 
 174   0.0000       2.357550        64.1522 
 175   0.0000       2.415377        65.7258 
 176   0.0000       2.429797        66.1181 
 177   0.0000       2.551574        69.4319 
 178   0.0000       2.561679        69.7068 
 179   0.0000       2.572498        70.0012 
 180   0.0000       2.576738        70.1166 
 181   0.0000       2.588264        70.4302 
 182   0.0000       2.593998        70.5863 
 183   0.0000       2.609259        71.0016 
 184   0.0000       2.621372        71.3312 
 185   0.0000       2.635062        71.7037 
 186   0.0000       2.642077        71.8946 
 187   0.0000       2.653788        72.2133 
 188   0.0000       2.664417        72.5025 
 189   0.0000       2.673084        72.7383 
 190   0.0000       2.685911        73.0874 
 191   0.0000       2.693502        73.2939 
 192   0.0000       2.711194        73.7753 
 193   0.0000       2.740432        74.5710 
 194   0.0000       2.753553        74.9280 
 195   0.0000       2.759671        75.0945 
 196   0.0000       2.763588        75.2010 
 197   0.0000       2.775523        75.5258 
 198   0.0000       2.788599        75.8816 
 199   0.0000       2.806527        76.3695 
 200   0.0000       2.828506        76.9676 
 201   0.0000       2.912147        79.2435 
 202   0.0000       2.917154        79.3798 
 203   0.0000       2.928935        79.7004 
 204   0.0000       2.931027        79.7573 
 205   0.0000       2.936921        79.9177 
 206   0.0000       2.938908        79.9718 
 207   0.0000       2.951600        80.3171 
 208   0.0000       2.968425        80.7749 
 209   0.0000       2.971992        80.8720 
 210   0.0000       2.974275        80.9341 
 211   0.0000       2.978106        81.0384 
 212   0.0000       3.012811        81.9828 
 213   0.0000       3.034581        82.5752 
 214   0.0000       3.044414        82.8427 
 215   0.0000       3.063297        83.3566 
 216   0.0000       3.093279        84.1724 
 217   0.0000       3.097716        84.2931 
 218   0.0000       3.112019        84.6824 
 219   0.0000       3.115758        84.7841 
 220   0.0000       3.127312        85.0985 
 221   0.0000       3.135469        85.3204 
 222   0.0000       3.235831        88.0514 
 223   0.0000       3.251226        88.4704 
 224   0.0000       3.260176        88.7139 
 225   0.0000       3.270591        88.9973 
 226   0.0000       3.274437        89.1020 
 227   0.0000       3.283637        89.3523 
 228   0.0000       3.294576        89.6500 
 229   0.0000       3.304249        89.9132 
 230   0.0000       3.329097        90.5893 
 231   0.0000       3.343133        90.9713 
 232   0.0000       3.346028        91.0501 
 233   0.0000       3.365587        91.5823 
 234   0.0000       3.377920        91.9179 
 235   0.0000       3.387730        92.1848 
 236   0.0000       3.410745        92.8111 
 237   0.0000       3.446353        93.7800 
 238   0.0000       3.464537        94.2748 
 239   0.0000       3.477545        94.6288 
 240   0.0000       3.486101        94.8616 
 241   0.0000       3.493391        95.0600 
 242   0.0000       3.515526        95.6623 
 243   0.0000       3.541932        96.3809 
 244   0.0000       3.564000        96.9814 
 245   0.0000       3.588208        97.6401 
 246   0.0000       3.658151        99.5434 
 247   0.0000       3.659248        99.5732 
 248   0.0000       3.668296        99.8194 
 249   0.0000       3.671919        99.9180 
 250   0.0000       3.679523       100.1249 
 251   0.0000       3.689750       100.4032 
 252   0.0000       3.790778       103.1523 
 253   0.0000       3.797557       103.3368 
 254   0.0000       3.803299       103.4930 
 255   0.0000       3.807437       103.6056 
 256   0.0000       3.818684       103.9117 
 257   0.0000       3.849627       104.7537 
 258   0.0000       3.924184       106.7825 
 259   0.0000       3.942997       107.2944 
 260   0.0000       3.947869       107.4270 
 261   0.0000       3.949485       107.4709 
 262   0.0000       3.960858       107.7804 
 263   0.0000       3.967626       107.9646 
 264   0.0000       3.976495       108.2059 
 265   0.0000       3.978277       108.2544 
 266   0.0000       3.997408       108.7750 
 267   0.0000       4.249604       115.6376 
 268   0.0000       4.253759       115.7507 
 269   0.0000       4.259692       115.9121 
 270   0.0000       4.267875       116.1348 
 271   0.0000       4.275920       116.3537 
 272   0.0000       4.301261       117.0432 
 273   0.0000       4.338376       118.0532 
 274   0.0000       4.349739       118.3624 
 275   0.0000       4.355671       118.5238 
 276   0.0000       4.359126       118.6179 
 277   0.0000       4.361508       118.6827 
 278   0.0000       4.362865       118.7196 
 279   0.0000       4.568690       124.3204 
 280   0.0000       4.579437       124.6128 
 281   0.0000       4.593958       125.0080 
 282   0.0000       4.728625       128.6724 
 283   0.0000       4.752859       129.3319 
 284   0.0000       4.760591       129.5423 
 285   0.0000       4.763554       129.6229 
 286   0.0000       4.780330       130.0794 
 287   0.0000       4.799371       130.5975 
 288   0.0000       4.855763       132.1320 
 289   0.0000       4.860619       132.2642 
 290   0.0000       4.885007       132.9278 
 291   0.0000       4.977085       135.4334 
 292   0.0000       4.981330       135.5489 
 293   0.0000       4.996067       135.9499 
 294   0.0000       4.996490       135.9614 
 295   0.0000       5.012276       136.3910 
 296   0.0000       5.017317       136.5281 
 297   0.0000       5.066166       137.8574 
 298   0.0000       5.079291       138.2145 
 299   0.0000       5.082939       138.3138 
 300   0.0000       5.104143       138.8908 
 301   0.0000       5.107845       138.9915 
 302   0.0000       5.132945       139.6745 
 303   0.0000       5.234403       142.4354 
 304   0.0000       5.247466       142.7908 
 305   0.0000       5.258957       143.1035 
[...]
      f+1     :     0.000635
      f-1     :     0.001995
      f+2     :     0.003984
      f-2     :     0.000688
      f+3     :     0.005927
      f-3     :     0.003108
 11 N s       :     3.664883  s :     3.664883
      pz      :     1.074734  p :     3.403849
      px      :     1.078909
      py      :     1.250206
      dz2     :     0.007245  d :     0.066033
      dxz     :     0.005040
      dyz     :     0.020980
      dx2y2   :     0.011946
      dxy     :     0.020822
      f0      :     0.000730  f :     0.005292
      f+1     :     0.000358
      f-1     :     0.000611
      f+2     :     0.001014
      f-2     :     0.000434
      f+3     :     0.001364
      f-3     :     0.000781
 12 C s       :     3.192260  s :     3.192260
      pz      :     1.087646  p :     3.009486
      px      :     0.826689
      py      :     1.095151
      dz2     :     0.013652  d :     0.076052
      dxz     :     0.016007
      dyz     :     0.014067
      dx2y2   :     0.014471
      dxy     :     0.017855
      f0      :     0.000697  f :     0.007011
      f+1     :     0.000997
      f-1     :     0.001599
      f+2     :     0.000767
      f-2     :     0.000599
      f+3     :     0.001477
      f-3     :     0.000876
 13 H s       :     0.791942  s :     0.791942
      pz      :     0.004949  p :     0.024067
      px      :     0.006448
      py      :     0.012670
 14 H s       :     0.801411  s :     0.801411
      pz      :     0.011119  p :     0.024114
      px      :     0.005657
      py      :     0.007338
 15 H s       :     0.801396  s :     0.801396
      pz      :     0.011175  p :     0.024114
      px      :     0.005650
      py      :     0.007290
 16 C s       :     3.231754  s :     3.231754
      pz      :     0.893348  p :     2.740390
      px      :     0.956374
      py      :     0.890668
      dz2     :     0.010286  d :     0.108919
      dxz     :     0.035607
      dyz     :     0.005165
      dx2y2   :     0.021737
      dxy     :     0.036123
      f0      :     0.002567  f :     0.018960
      f+1     :     0.002007
      f-1     :     0.000641
      f+2     :     0.004006
      f-2     :     0.000687
      f+3     :     0.003115
      f-3     :     0.005937
 17 N s       :     3.671667  s :     3.671667
      pz      :     1.069549  p :     3.388842
      px      :     1.248032
      py      :     1.071261
      dz2     :     0.007225  d :     0.066079
      dxz     :     0.021027
      dyz     :     0.005007
      dx2y2   :     0.011972
      dxy     :     0.020847
      f0      :     0.000730  f :     0.005285
      f+1     :     0.000611
      f-1     :     0.000357
      f+2     :     0.001012
      f-2     :     0.000434
      f+3     :     0.000779
      f-3     :     0.001362


                     *******************************
                     * LOEWDIN POPULATION ANALYSIS *
                     *******************************

----------------------
LOEWDIN ATOMIC CHARGES
----------------------
   0 C :   -0.286630
   1 H :    0.152347
   2 H :    0.147727
   3 H :    0.147726
   4 C :   -0.216128
   5 N :    0.031525
   6 C :   -0.281011
   7 H :    0.149705
   8 H :    0.153196
   9 H :    0.149708
  10 C :   -0.199887
  11 N :    0.028776
  12 C :   -0.276608
  13 H :    0.155141
  14 H :    0.152441
  15 H :    0.152449
  16 C :   -0.198054
  17 N :    0.037575

-------------------------------
LOEWDIN REDUCED ORBITAL CHARGES
-------------------------------
  0 C s       :     2.821130  s :     2.821130
      pz      :     1.058790  p :     3.164274
      px      :     1.025919
      py      :     1.079566
      dz2     :     0.042466  d :     0.270796
      dxz     :     0.061063
      dyz     :     0.038949
      dx2y2   :     0.059719
      dxy     :     0.068599
      f0      :     0.002680  f :     0.030430
      f+1     :     0.004654
      f-1     :     0.004197
      f+2     :     0.004474
      f-2     :     0.002593
      f+3     :     0.006365
      f-3     :     0.005467
  1 H s       :     0.776230  s :     0.776230
      pz      :     0.013535  p :     0.071423
      px      :     0.017012
      py      :     0.040876
  2 H s       :     0.786298  s :     0.786298
      pz      :     0.030939  p :     0.065976
      px      :     0.014147
      py      :     0.020890
  3 H s       :     0.786298  s :     0.786298
      pz      :     0.031099  p :     0.065976
      px      :     0.014126
      py      :     0.020750
  4 C s       :     2.845898  s :     2.845898
      pz      :     0.840847  p :     2.853569
      px      :     1.170401
      py      :     0.842321
      dz2     :     0.044076  d :     0.450398
      dxz     :     0.135914
      dyz     :     0.006204
      dx2y2   :     0.123020
      dxy     :     0.141185
      f0      :     0.007417  f :     0.066262
      f+1     :     0.009958
      f-1     :     0.001490
      f+2     :     0.011866
      f-2     :     0.001049
      f+3     :     0.016272
      f-3     :     0.018209
  5 N s       :     3.302588  s :     3.302588
      pz      :     1.017927  p :     3.509860
      px      :     1.469358
      py      :     1.022575
      dz2     :     0.016949  d :     0.136567
      dxz     :     0.036589
      dyz     :     0.005013
      dx2y2   :     0.041143
      dxy     :     0.036874
      f0      :     0.002131  f :     0.019460
      f+1     :     0.003100
      f-1     :     0.000603
      f+2     :     0.003300
      f-2     :     0.000505
      f+3     :     0.004911
      f-3     :     0.004910
  6 C s       :     2.820567  s :     2.820567
      pz      :     1.059934  p :     3.161401
      px      :     1.079546
      py      :     1.021921
      dz2     :     0.042533  d :     0.268725
      dxz     :     0.038678
      dyz     :     0.059982
      dx2y2   :     0.060034
      dxy     :     0.067499
      f0      :     0.002653  f :     0.030318
      f+1     :     0.004183
      f-1     :     0.004671
      f+2     :     0.004421
      f-2     :     0.002581
      f+3     :     0.005415
      f-3     :     0.006393
  7 H s       :     0.784197  s :     0.784197
      pz      :     0.031065  p :     0.066098
      px      :     0.020920
      py      :     0.014113
  8 H s       :     0.775433  s :     0.775433
      pz      :     0.013563  p :     0.071371
      px      :     0.040825
      py      :     0.016983
  9 H s       :     0.784194  s :     0.784194
      pz      :     0.031226  p :     0.066098
      px      :     0.020779
      py      :     0.014093
 10 C s       :     2.843412  s :     2.843412
      pz      :     0.834583  p :     2.837207
      px      :     0.835898
      py      :     1.166725
      dz2     :     0.044045  d :     0.452762
      dxz     :     0.006154
      dyz     :     0.137181
      dx2y2   :     0.123009
      dxy     :     0.142373
      f0      :     0.007469  f :     0.066506
      f+1     :     0.001496
      f-1     :     0.009946
      f+2     :     0.011951
      f-2     :     0.001051
      f+3     :     0.018331
      f-3     :     0.016262
 11 N s       :     3.295223  s :     3.295223
      pz      :     1.026067  p :     3.521399
      px      :     1.030412
      py      :     1.464921
      dz2     :     0.016982  d :     0.135128
      dxz     :     0.005051
      dyz     :     0.035791
      dx2y2   :     0.040949
      dxy     :     0.036356
      f0      :     0.002131  f :     0.019473
      f+1     :     0.000605
      f-1     :     0.003107
      f+2     :     0.003296
      f-2     :     0.000507
      f+3     :     0.004902
      f-3     :     0.004924
 12 C s       :     2.820577  s :     2.820577
      pz      :     1.064674  p :     3.153890
      px      :     1.022842
      py      :     1.066375
      dz2     :     0.043185  d :     0.271685
      dxz     :     0.060869
      dyz     :     0.037703
      dx2y2   :     0.060130
      dxy     :     0.069799
      f0      :     0.002672  f :     0.030456
      f+1     :     0.004675
      f-1     :     0.004150
      f+2     :     0.004451
      f-2     :     0.002547
      f+3     :     0.006480
      f-3     :     0.005480
 13 H s       :     0.778776  s :     0.778776
      pz      :     0.013857  p :     0.066083
      px      :     0.016031
      py      :     0.036195
 14 H s       :     0.781432  s :     0.781432
      pz      :     0.031489  p :     0.066127
      px      :     0.014033
      py      :     0.020605
 15 H s       :     0.781424  s :     0.781424
      pz      :     0.031644  p :     0.066127
      px      :     0.014016
      py      :     0.020468
 16 C s       :     2.842263  s :     2.842263
      pz      :     0.837201  p :     2.841148
      px      :     1.165167
      py      :     0.838780
      dz2     :     0.044183  d :     0.448021
      dxz     :     0.136430
      dyz     :     0.006132
      dx2y2   :     0.123000
      dxy     :     0.138278
      f0      :     0.007491  f :     0.066621
      f+1     :     0.009986
      f-1     :     0.001501
      f+2     :     0.011974
      f-2     :     0.001046
      f+3     :     0.016303
      f-3     :     0.018319
 17 N s       :     3.295936  s :     3.295936
      pz      :     1.022201  p :     3.511216
      px      :     1.464217
      py      :     1.024797
      dz2     :     0.016983  d :     0.135721
      dxz     :     0.036087
      dyz     :     0.005021
      dx2y2   :     0.040993
      dxy     :     0.036637
      f0      :     0.002147  f :     0.019552
      f+1     :     0.003109
      f-1     :     0.000607
      f+2     :     0.003319
      f-2     :     0.000507
      f+3     :     0.004925
      f-3     :     0.004937


                      *****************************
                      * MAYER POPULATION ANALYSIS *
                      *****************************

  NA   - Mulliken gross atomic population
  ZA   - Total nuclear charge
  QA   - Mulliken gross atomic charge
  VA   - Mayer's total valence
  BVA  - Mayer's bonded valence
  FA   - Mayer's free valence

  ATOM       NA         ZA         QA         VA         BVA        FA
  0 C      6.2752     6.0000    -0.2752     3.9009     3.6188     0.2821
  1 H      0.8023     1.0000     0.1977     0.9811     0.9333     0.0478
  2 H      0.8420     1.0000     0.1580     0.9684     0.9207     0.0477
  3 H      0.8420     1.0000     0.1580     0.9684     0.9207     0.0477
  4 C      6.1548     6.0000    -0.1548     4.1726     3.7491     0.4235
  5 N      7.1004     7.0000    -0.1004     3.3606     2.8905     0.4701
  6 C      6.2745     6.0000    -0.2745     3.9094     3.6274     0.2820
  7 H      0.8375     1.0000     0.1625     0.9673     0.9199     0.0475
  8 H      0.8017     1.0000     0.1983     0.9800     0.9323     0.0477
  9 H      0.8375     1.0000     0.1625     0.9673     0.9199     0.0475
 10 C      6.1083     6.0000    -0.1083     4.0924     3.6728     0.4196
 11 N      7.1401     7.0000    -0.1401     3.3039     2.8301     0.4738
 12 C      6.2848     6.0000    -0.2848     3.9351     3.6532     0.2820
 13 H      0.8160     1.0000     0.1840     0.9610     0.9147     0.0463
 14 H      0.8255     1.0000     0.1745     0.9626     0.9158     0.0468
 15 H      0.8255     1.0000     0.1745     0.9626     0.9158     0.0468
 16 C      6.1000     6.0000    -0.1000     4.0807     3.6603     0.4204
 17 N      7.1319     7.0000    -0.1319     3.2988     2.8250     0.4738

  Mayer bond orders larger than 0.100000
B(  0-C ,  1-H ) :   0.8998 B(  0-C ,  2-H ) :   0.9192 B(  0-C ,  3-H ) :   0.9192 
B(  0-C ,  4-C ) :   0.9019 B(  4-C ,  5-N ) :   2.8575 B(  6-C ,  7-H ) :   0.9180 
B(  6-C ,  8-H ) :   0.9009 B(  6-C ,  9-H ) :   0.9180 B(  6-C , 10-C ) :   0.9041 
B( 10-C , 11-N ) :   2.7776 B( 12-C , 13-H ) :   0.9148 B( 12-C , 14-H ) :   0.9157 
B( 12-C , 15-H ) :   0.9157 B( 12-C , 16-C ) :   0.9042 B( 16-C , 17-N ) :   2.7720 



----------------------------------
MP2 DERIVATIVE INTEGRAL GENERATION
----------------------------------


Input Wavefunction Amplitudes       ... 4mecn.malloum.etal.dset.3mecn.dset-orca.engrad-mp2.def2tzvp_job24.mp2tsaa.tmp
Input Correlated Electron Density   ... 4mecn.malloum.etal.dset.3mecn.dset-orca.engrad-mp2.def2tzvp_job24.pmp2re
Input Energy Weighted Density       ... 4mecn.malloum.etal.dset.3mecn.dset-orca.engrad-mp2.def2tzvp_job24.wmp2.tmp
Input SCF Electron Density          ... 4mecn.malloum.etal.dset.3mecn.dset-orca.engrad-mp2.def2tzvp_job24.scfp

One-Electron Terms    ...
                        ... One-Electron Terms done
Prescreening matrices              ... done

Batch handling in the gradient evaluation:
Memory available                      ... 8000.0 MB
Memory per occupied orbital in Q2     ...   20.3 MB
Memory per occupied orbital in Q3     ...    0.1 MB
Total memory requirement per |i>      ...   20.4 MB
Max. Number of orbitals possible      ...    391
Number of orbitals treated per batch  ...     24
Number of batches to be done          ...      1
Batch   0: i=    9 ...    32

---------------------------------------
MP2 TOTAL ENERGY:     -397.461186836 Eh
---------------------------------------

The final MP2 gradient
  0:  -0.00038590   0.00041587  -0.00000183
  1:   0.00129714  -0.00266112   0.00000700
  2:   0.00081030   0.00113003   0.00204920
  3:   0.00080704   0.00111525  -0.00205866
  4:  -0.01806153  -0.00138101   0.00002258
  5:   0.01568156   0.00137754  -0.00001830
  6:   0.00030210   0.00023594   0.00000015
  7:   0.00114118  -0.00097020  -0.00200263
  8:  -0.00262484  -0.00151557  -0.00000604
  9:   0.00112660  -0.00096755   0.00201267
 10:  -0.00131815   0.01772757  -0.00002175
 11:   0.00110901  -0.01433974   0.00001779
 12:   0.00056037  -0.00012000   0.00000042
 13:  -0.00202575   0.00316483   0.00000872
 14:  -0.00070362  -0.00150685   0.00208770
 15:  -0.00070119  -0.00149333  -0.00209876
 16:   0.01652190   0.00070577   0.00001636
 17:  -0.01353624  -0.00091741  -0.00001463

-----------------------------------
NORM OF THE MP2 GRADIENT:  0.040351
-----------------------------------

-------------------------   --------------------
FINAL SINGLE POINT ENERGY      -397.461186835835
-------------------------   --------------------


                            ***************************************
                            *     ORCA property calculations      *
                            ***************************************

                                    ---------------------
                                    Active property flags
                                    ---------------------
   (+) Dipole Moment


------------------------------------------------------------------------------
                       ORCA ELECTRIC PROPERTIES CALCULATION
------------------------------------------------------------------------------

Dipole Moment Calculation                       ... on
Quadrupole Moment Calculation                   ... off
Polarizability Calculation                      ... off
GBWName                                         ... 4mecn.malloum.etal.dset.3mecn.dset-orca.engrad-mp2.def2tzvp_job24.gbw
Electron density file                           ... 4mecn.malloum.etal.dset.3mecn.dset-orca.engrad-mp2.def2tzvp_job24.scfp
The origin for moment calculation is the CENTER OF MASS  = ( 0.000002, -0.000025 -0.000000)

-------------
DIPOLE MOMENT
-------------
                                X             Y             Z
Electronic contribution:     -0.34460       2.60829       0.00296
Nuclear contribution   :      0.37080      -4.66947      -0.00454
                        -----------------------------------------
Total Dipole Moment    :      0.02620      -2.06119      -0.00158
                        -----------------------------------------
Magnitude (a.u.)       :      2.06135
Magnitude (Debye)      :      5.23955



--------------------
Rotational spectrum 
--------------------
 
Rotational constants in cm-1:     0.035068     0.014265     0.010199 
Rotational constants in MHz :  1051.307081   427.639019   305.746442 

 Dipole components along the rotational axes: 
x,y,z [a.u.] :    -1.998190    -0.506372    -0.002552 
x,y,z [Debye]:    -5.078995    -1.287096    -0.006487 

 

                         *** MP2 UNRELAXED DENSITY ***

------------------------------------------------------------------------------
                       ORCA ELECTRIC PROPERTIES CALCULATION
------------------------------------------------------------------------------

Dipole Moment Calculation                       ... on
Quadrupole Moment Calculation                   ... off
Polarizability Calculation                      ... off
GBWName                                         ... 4mecn.malloum.etal.dset.3mecn.dset-orca.engrad-mp2.def2tzvp_job24.gbw
Electron density file                           ... 4mecn.malloum.etal.dset.3mecn.dset-orca.engrad-mp2.def2tzvp_job24.pmp2ur
The origin for moment calculation is the CENTER OF MASS  = ( 0.000002, -0.000025 -0.000000)

-------------
DIPOLE MOMENT
-------------
                                X             Y             Z
Electronic contribution:     -0.34714       2.64255       0.00299
Nuclear contribution   :      0.37080      -4.66947      -0.00454
                        -----------------------------------------
Total Dipole Moment    :      0.02366      -2.02692      -0.00155
                        -----------------------------------------
Magnitude (a.u.)       :      2.02706
Magnitude (Debye)      :      5.15237



--------------------
Rotational spectrum 
--------------------
 
Rotational constants in cm-1:     0.035068     0.014265     0.010199 
Rotational constants in MHz :  1051.307081   427.639019   305.746442 

 Dipole components along the rotational axes: 
x,y,z [a.u.] :    -1.965462    -0.495902    -0.002500 
x,y,z [Debye]:    -4.995807    -1.260483    -0.006355 

 

                           *** MP2 RELAXED DENSITY ***

------------------------------------------------------------------------------
                       ORCA ELECTRIC PROPERTIES CALCULATION
------------------------------------------------------------------------------

Dipole Moment Calculation                       ... on
Quadrupole Moment Calculation                   ... off
Polarizability Calculation                      ... off
GBWName                                         ... 4mecn.malloum.etal.dset.3mecn.dset-orca.engrad-mp2.def2tzvp_job24.gbw
Electron density file                           ... 4mecn.malloum.etal.dset.3mecn.dset-orca.engrad-mp2.def2tzvp_job24.pmp2re
The origin for moment calculation is the CENTER OF MASS  = ( 0.000002, -0.000025 -0.000000)

-------------
DIPOLE MOMENT
-------------
                                X             Y             Z
Electronic contribution:     -0.34912       2.75466       0.00309
Nuclear contribution   :      0.37080      -4.66947      -0.00454
                        -----------------------------------------
Total Dipole Moment    :      0.02168      -1.91482      -0.00145
                        -----------------------------------------
Magnitude (a.u.)       :      1.91494
Magnitude (Debye)      :      4.86740



--------------------
Rotational spectrum 
--------------------
 
Rotational constants in cm-1:     0.035068     0.014265     0.010199 
Rotational constants in MHz :  1051.307081   427.639019   305.746442 

 Dipole components along the rotational axes: 
x,y,z [a.u.] :    -1.856917    -0.467823    -0.002353 
x,y,z [Debye]:    -4.719908    -1.189110    -0.005980 

 

Timings for individual modules:

Sum of individual times         ...       98.007 sec (=   1.633 min)
GTO integral calculation        ...        0.896 sec (=   0.015 min)   0.9 %
SCF iterations                  ...       20.743 sec (=   0.346 min)  21.2 %
MP2 module                      ...       76.367 sec (=   1.273 min)  77.9 %



                             ****ORCA TERMINATED NORMALLY****
TOTAL RUN TIME: 0 days 0 hours 59 minutes 19 seconds 673 msec
