
                                 *****************
                                 * O   R   C   A *
                                 *****************

           --- An Ab Initio, DFT and Semiempirical electronic structure package ---

                  #######################################################
                  #                        -***-                        #
                  #          Department of theory and spectroscopy      #
                  #               Directorship: Frank Neese             #
                  #        Max Planck Institute fuer Kohlenforschung    #
                  #                Kaiser Wilhelm Platz 1               #
                  #                 D-45470 Muelheim/Ruhr               #
                  #                      Germany                        #
                  #                                                     #
                  #                  All rights reserved                #
                  #                        -***-                        #
                  #######################################################


                         Program Version 4.2.0 -  RELEASE  -


 With contributions from (in alphabetic order):
   Daniel Aravena         : Magnetic Suceptibility
   Michael Atanasov       : Ab Initio Ligand Field Theory (pilot matlab implementation)
   Alexander A. Auer      : GIAO ZORA, VPT2
   Ute Becker             : Parallelization
   Giovanni Bistoni       : ED, misc. LED, open-shell LED, HFLED
   Martin Brehm           : Molecular dynamics
   Dmytro Bykov           : SCF Hessian
   Vijay G. Chilkuri      : MRCI spin determinant printing, contributions to CSF-ICE
   Dipayan Datta          : RHF DLPNO-CCSD density
   Achintya Kumar Dutta   : EOM-CC, STEOM-CC
   Dmitry Ganyushin       : Spin-Orbit,Spin-Spin,Magnetic field MRCI
   Miquel Garcia          : C-PCM Hessian, Gaussian charge scheme
   Yang Guo               : DLPNO-NEVPT2, CIM, IAO-localization
   Andreas Hansen         : Spin unrestricted coupled pair/coupled cluster methods
   Benjamin Helmich-Paris : CASSCF linear response (MC-RPA)
   Lee Huntington         : MR-EOM, pCC
   Robert Izsak           : Overlap fitted RIJCOSX, COSX-SCS-MP3, EOM
   Christian Kollmar      : KDIIS, OOCD, Brueckner-CCSD(T), CCSD density
   Simone Kossmann        : Meta GGA functionals, TD-DFT gradient, OOMP2, MP2 Hessian
   Martin Krupicka        : AUTO-CI
   Lucas Lang             : DCDCAS
   Dagmar Lenk            : GEPOL surface, SMD
   Dimitrios Liakos       : Extrapolation schemes; Compound Job, initial MDCI parallelization
   Dimitrios Manganas     : Further ROCIS development; embedding schemes
   Dimitrios Pantazis     : SARC Basis sets
   Taras Petrenko         : DFT Hessian,TD-DFT gradient, ASA, ECA, R-Raman, ABS, FL, XAS/XES, NRVS
   Peter Pinski           : DLPNO-MP2, DLPNO-MP2 Gradient
   Christoph Reimann      : Effective Core Potentials
   Marius Retegan         : Local ZFS, SOC
   Christoph Riplinger    : Optimizer, TS searches, QM/MM, DLPNO-CCSD(T), (RO)-DLPNO pert. Triples
   Tobias Risthaus        : Range-separated hybrids, TD-DFT gradient, RPA, STAB
   Michael Roemelt        : Original ROCIS implementation
   Masaaki Saitow         : Open-shell DLPNO-CCSD energy and density
   Barbara Sandhoefer     : DKH picture change effects
   Avijit Sen             : IP-ROCIS
   Kantharuban Sivalingam : CASSCF convergence, NEVPT2, FIC-MRCI
   Bernardo de Souza      : ESD, SOC TD-DFT
   Georgi Stoychev        : AutoAux, RI-MP2 NMR
   Willem Van den Heuvel  : Paramagnetic NMR
   Boris Wezisla          : Elementary symmetry handling
   Frank Wennmohs         : Technical directorship


 We gratefully acknowledge several colleagues who have allowed us to
 interface, adapt or use parts of their codes:
   Stefan Grimme, W. Hujo, H. Kruse,             : VdW corrections, initial TS optimization,
                  C. Bannwarth                     DFT functionals, gCP, sTDA/sTD-DF
   Ed Valeev, F. Pavosevic, A. Kumar             : LibInt (2-el integral package), F12 methods
   Garnet Chan, S. Sharma, J. Yang, R. Olivares  : DMRG
   Ulf Ekstrom                                   : XCFun DFT Library
   Mihaly Kallay                                 : mrcc  (arbitrary order and MRCC methods)
   Andreas Klamt, Michael Diedenhofen            : otool_cosmo (COSMO solvation model)
   Jiri Pittner, Ondrej Demel                    : Mk-CCSD
   Frank Weinhold                                : gennbo (NPA and NBO analysis)
   Christopher J. Cramer and Donald G. Truhlar   : smd solvation model
   Lars Goerigk                                  : TD-DFT with DH, B97 family of functionals
   V. Asgeirsson, H. Jonsson                     : NEB implementation
   FAccTs GmbH                                   : IRC, NEB, NEB-TS, Multilevel, MM, QM/MM, CI optimization
   S Lehtola, MJT Oliveira, MAL Marques          : LibXC Library


 Your calculation uses the libint2 library for the computation of 2-el integrals
 For citations please refer to: http://libint.valeyev.net

 Your ORCA version has been built with support for libXC version: 4.2.3
 For citations please refer to: https://tddft.org/programs/libxc/

 This ORCA versions uses:
   CBLAS   interface :  Fast vector & matrix operations
   LAPACKE interface :  Fast linear algebra routines
   SCALAPACK package :  Parallel linear algebra routines


----- Orbital basis set information -----
Your calculation utilizes the basis: def2-TZVP
   F. Weigend and R. Ahlrichs, Phys. Chem. Chem. Phys. 7, 3297 (2005).

================================================================================
                                        WARNINGS
                       Please study these warnings very carefully!
================================================================================


WARNING: The frozen-core approximation for MP2-gradient calculations is turned on by default.

INFO   : the flag for use of LIBINT has been found!

----- Orbital basis set information -----
Your calculation utilizes the basis: def2-TZVP
   F. Weigend and R. Ahlrichs, Phys. Chem. Chem. Phys. 7, 3297 (2005).

================================================================================
                                        WARNINGS
                       Please study these warnings very carefully!
================================================================================


WARNING: The frozen-core approximation for MP2-gradient calculations is turned on by default.

INFO   : the flag for use of LIBINT has been found!

----- Orbital basis set information -----
Your calculation utilizes the basis: def2-TZVP
   F. Weigend and R. Ahlrichs, Phys. Chem. Chem. Phys. 7, 3297 (2005).

================================================================================
                                        WARNINGS
                       Please study these warnings very carefully!
================================================================================


WARNING: The frozen-core approximation for MP2-gradient calculations is turned on by default.

INFO   : the flag for use of LIBINT has been found!

----- Orbital basis set information -----
Your calculation utilizes the basis: def2-TZVP
   F. Weigend and R. Ahlrichs, Phys. Chem. Chem. Phys. 7, 3297 (2005).

================================================================================
                                        WARNINGS
                       Please study these warnings very carefully!
================================================================================


WARNING: The frozen-core approximation for MP2-gradient calculations is turned on by default.

INFO   : the flag for use of LIBINT has been found!

----- Orbital basis set information -----
Your calculation utilizes the basis: def2-TZVP
   F. Weigend and R. Ahlrichs, Phys. Chem. Chem. Phys. 7, 3297 (2005).

================================================================================
                                        WARNINGS
                       Please study these warnings very carefully!
================================================================================


WARNING: The frozen-core approximation for MP2-gradient calculations is turned on by default.

INFO   : the flag for use of LIBINT has been found!

----- Orbital basis set information -----
Your calculation utilizes the basis: def2-TZVP
   F. Weigend and R. Ahlrichs, Phys. Chem. Chem. Phys. 7, 3297 (2005).

================================================================================
                                        WARNINGS
                       Please study these warnings very carefully!
================================================================================


WARNING: The frozen-core approximation for MP2-gradient calculations is turned on by default.

INFO   : the flag for use of LIBINT has been found!

----- Orbital basis set information -----
Your calculation utilizes the basis: def2-TZVP
   F. Weigend and R. Ahlrichs, Phys. Chem. Chem. Phys. 7, 3297 (2005).

================================================================================
                                        WARNINGS
                       Please study these warnings very carefully!
================================================================================


WARNING: The frozen-core approximation for MP2-gradient calculations is turned on by default.

INFO   : the flag for use of LIBINT has been found!

----- Orbital basis set information -----
Your calculation utilizes the basis: def2-TZVP
   F. Weigend and R. Ahlrichs, Phys. Chem. Chem. Phys. 7, 3297 (2005).

================================================================================
                                        WARNINGS
                       Please study these warnings very carefully!
================================================================================


WARNING: The frozen-core approximation for MP2-gradient calculations is turned on by default.

INFO   : the flag for use of LIBINT has been found!

----- Orbital basis set information -----
Your calculation utilizes the basis: def2-TZVP
   F. Weigend and R. Ahlrichs, Phys. Chem. Chem. Phys. 7, 3297 (2005).

================================================================================
                                        WARNINGS
                       Please study these warnings very carefully!
================================================================================


WARNING: The frozen-core approximation for MP2-gradient calculations is turned on by default.

INFO   : the flag for use of LIBINT has been found!

----- Orbital basis set information -----
Your calculation utilizes the basis: def2-TZVP
   F. Weigend and R. Ahlrichs, Phys. Chem. Chem. Phys. 7, 3297 (2005).

================================================================================
                                        WARNINGS
                       Please study these warnings very carefully!
================================================================================


WARNING: The frozen-core approximation for MP2-gradient calculations is turned on by default.

INFO   : the flag for use of LIBINT has been found!

----- Orbital basis set information -----
Your calculation utilizes the basis: def2-TZVP
   F. Weigend and R. Ahlrichs, Phys. Chem. Chem. Phys. 7, 3297 (2005).

================================================================================
                                        WARNINGS
                       Please study these warnings very carefully!
================================================================================


WARNING: The frozen-core approximation for MP2-gradient calculations is turned on by default.

INFO   : the flag for use of LIBINT has been found!

----- Orbital basis set information -----
Your calculation utilizes the basis: def2-TZVP
   F. Weigend and R. Ahlrichs, Phys. Chem. Chem. Phys. 7, 3297 (2005).

================================================================================
                                        WARNINGS
                       Please study these warnings very carefully!
================================================================================


WARNING: The frozen-core approximation for MP2-gradient calculations is turned on by default.

INFO   : the flag for use of LIBINT has been found!

----- Orbital basis set information -----
Your calculation utilizes the basis: def2-TZVP
   F. Weigend and R. Ahlrichs, Phys. Chem. Chem. Phys. 7, 3297 (2005).

================================================================================
                                        WARNINGS
                       Please study these warnings very carefully!
================================================================================


WARNING: The frozen-core approximation for MP2-gradient calculations is turned on by default.

INFO   : the flag for use of LIBINT has been found!

----- Orbital basis set information -----
Your calculation utilizes the basis: def2-TZVP
   F. Weigend and R. Ahlrichs, Phys. Chem. Chem. Phys. 7, 3297 (2005).

================================================================================
                                        WARNINGS
                       Please study these warnings very carefully!
================================================================================


WARNING: The frozen-core approximation for MP2-gradient calculations is turned on by default.

INFO   : the flag for use of LIBINT has been found!

----- Orbital basis set information -----
Your calculation utilizes the basis: def2-TZVP
   F. Weigend and R. Ahlrichs, Phys. Chem. Chem. Phys. 7, 3297 (2005).

================================================================================
                                        WARNINGS
                       Please study these warnings very carefully!
================================================================================


WARNING: The frozen-core approximation for MP2-gradient calculations is turned on by default.

INFO   : the flag for use of LIBINT has been found!

----- Orbital basis set information -----
Your calculation utilizes the basis: def2-TZVP
   F. Weigend and R. Ahlrichs, Phys. Chem. Chem. Phys. 7, 3297 (2005).

================================================================================
                                        WARNINGS
                       Please study these warnings very carefully!
================================================================================


WARNING: The frozen-core approximation for MP2-gradient calculations is turned on by default.

INFO   : the flag for use of LIBINT has been found!

----- Orbital basis set information -----
Your calculation utilizes the basis: def2-TZVP
   F. Weigend and R. Ahlrichs, Phys. Chem. Chem. Phys. 7, 3297 (2005).

================================================================================
                                        WARNINGS
                       Please study these warnings very carefully!
================================================================================


WARNING: The frozen-core approximation for MP2-gradient calculations is turned on by default.

INFO   : the flag for use of LIBINT has been found!

----- Orbital basis set information -----
Your calculation utilizes the basis: def2-TZVP
   F. Weigend and R. Ahlrichs, Phys. Chem. Chem. Phys. 7, 3297 (2005).

================================================================================
                                        WARNINGS
                       Please study these warnings very carefully!
================================================================================


WARNING: The frozen-core approximation for MP2-gradient calculations is turned on by default.

INFO   : the flag for use of LIBINT has been found!

----- Orbital basis set information -----
Your calculation utilizes the basis: def2-TZVP
   F. Weigend and R. Ahlrichs, Phys. Chem. Chem. Phys. 7, 3297 (2005).

================================================================================
                                        WARNINGS
                       Please study these warnings very carefully!
================================================================================


WARNING: The frozen-core approximation for MP2-gradient calculations is turned on by default.

INFO   : the flag for use of LIBINT has been found!

----- Orbital basis set information -----
Your calculation utilizes the basis: def2-TZVP
   F. Weigend and R. Ahlrichs, Phys. Chem. Chem. Phys. 7, 3297 (2005).

================================================================================
                                        WARNINGS
                       Please study these warnings very carefully!
================================================================================


WARNING: The frozen-core approximation for MP2-gradient calculations is turned on by default.

INFO   : the flag for use of LIBINT has been found!

----- Orbital basis set information -----
Your calculation utilizes the basis: def2-TZVP
   F. Weigend and R. Ahlrichs, Phys. Chem. Chem. Phys. 7, 3297 (2005).

================================================================================
                                        WARNINGS
                       Please study these warnings very carefully!
================================================================================


WARNING: The frozen-core approximation for MP2-gradient calculations is turned on by default.

INFO   : the flag for use of LIBINT has been found!

----- Orbital basis set information -----
Your calculation utilizes the basis: def2-TZVP
   F. Weigend and R. Ahlrichs, Phys. Chem. Chem. Phys. 7, 3297 (2005).

================================================================================
                                        WARNINGS
                       Please study these warnings very carefully!
================================================================================


WARNING: The frozen-core approximation for MP2-gradient calculations is turned on by default.

INFO   : the flag for use of LIBINT has been found!

----- Orbital basis set information -----
Your calculation utilizes the basis: def2-TZVP
   F. Weigend and R. Ahlrichs, Phys. Chem. Chem. Phys. 7, 3297 (2005).

================================================================================
                                        WARNINGS
                       Please study these warnings very carefully!
================================================================================


WARNING: The frozen-core approximation for MP2-gradient calculations is turned on by default.

INFO   : the flag for use of LIBINT has been found!

----- Orbital basis set information -----
Your calculation utilizes the basis: def2-TZVP
   F. Weigend and R. Ahlrichs, Phys. Chem. Chem. Phys. 7, 3297 (2005).

================================================================================
                                        WARNINGS
                       Please study these warnings very carefully!
================================================================================


WARNING: The frozen-core approximation for MP2-gradient calculations is turned on by default.

INFO   : the flag for use of LIBINT has been found!

----- Orbital basis set information -----
Your calculation utilizes the basis: def2-TZVP
   F. Weigend and R. Ahlrichs, Phys. Chem. Chem. Phys. 7, 3297 (2005).

================================================================================
                                        WARNINGS
                       Please study these warnings very carefully!
================================================================================


WARNING: The frozen-core approximation for MP2-gradient calculations is turned on by default.

INFO   : the flag for use of LIBINT has been found!

----- Orbital basis set information -----
Your calculation utilizes the basis: def2-TZVP
   F. Weigend and R. Ahlrichs, Phys. Chem. Chem. Phys. 7, 3297 (2005).

================================================================================
                                        WARNINGS
                       Please study these warnings very carefully!
================================================================================


WARNING: The frozen-core approximation for MP2-gradient calculations is turned on by default.

INFO   : the flag for use of LIBINT has been found!

----- Orbital basis set information -----
Your calculation utilizes the basis: def2-TZVP
   F. Weigend and R. Ahlrichs, Phys. Chem. Chem. Phys. 7, 3297 (2005).

================================================================================
                                        WARNINGS
                       Please study these warnings very carefully!
================================================================================


WARNING: The frozen-core approximation for MP2-gradient calculations is turned on by default.

INFO   : the flag for use of LIBINT has been found!

----- Orbital basis set information -----
Your calculation utilizes the basis: def2-TZVP
   F. Weigend and R. Ahlrichs, Phys. Chem. Chem. Phys. 7, 3297 (2005).

================================================================================
                                        WARNINGS
                       Please study these warnings very carefully!
================================================================================


WARNING: The frozen-core approximation for MP2-gradient calculations is turned on by default.

INFO   : the flag for use of LIBINT has been found!

----- Orbital basis set information -----
Your calculation utilizes the basis: def2-TZVP
   F. Weigend and R. Ahlrichs, Phys. Chem. Chem. Phys. 7, 3297 (2005).

================================================================================
                                        WARNINGS
                       Please study these warnings very carefully!
================================================================================


WARNING: The frozen-core approximation for MP2-gradient calculations is turned on by default.

INFO   : the flag for use of LIBINT has been found!

----- Orbital basis set information -----
Your calculation utilizes the basis: def2-TZVP
   F. Weigend and R. Ahlrichs, Phys. Chem. Chem. Phys. 7, 3297 (2005).

================================================================================
                                        WARNINGS
                       Please study these warnings very carefully!
================================================================================


WARNING: The frozen-core approximation for MP2-gradient calculations is turned on by default.

INFO   : the flag for use of LIBINT has been found!

----- Orbital basis set information -----
Your calculation utilizes the basis: def2-TZVP
   F. Weigend and R. Ahlrichs, Phys. Chem. Chem. Phys. 7, 3297 (2005).

================================================================================
                                        WARNINGS
                       Please study these warnings very carefully!
================================================================================


WARNING: The frozen-core approximation for MP2-gradient calculations is turned on by default.

INFO   : the flag for use of LIBINT has been found!

----- Orbital basis set information -----
Your calculation utilizes the basis: def2-TZVP
   F. Weigend and R. Ahlrichs, Phys. Chem. Chem. Phys. 7, 3297 (2005).

================================================================================
                                        WARNINGS
                       Please study these warnings very carefully!
================================================================================


WARNING: The frozen-core approximation for MP2-gradient calculations is turned on by default.

INFO   : the flag for use of LIBINT has been found!

----- Orbital basis set information -----
Your calculation utilizes the basis: def2-TZVP
   F. Weigend and R. Ahlrichs, Phys. Chem. Chem. Phys. 7, 3297 (2005).

================================================================================
                                        WARNINGS
                       Please study these warnings very carefully!
================================================================================


WARNING: The frozen-core approximation for MP2-gradient calculations is turned on by default.

INFO   : the flag for use of LIBINT has been found!

----- Orbital basis set information -----
Your calculation utilizes the basis: def2-TZVP
   F. Weigend and R. Ahlrichs, Phys. Chem. Chem. Phys. 7, 3297 (2005).

================================================================================
                                        WARNINGS
                       Please study these warnings very carefully!
================================================================================


WARNING: The frozen-core approximation for MP2-gradient calculations is turned on by default.

INFO   : the flag for use of LIBINT has been found!

----- Orbital basis set information -----
Your calculation utilizes the basis: def2-TZVP
   F. Weigend and R. Ahlrichs, Phys. Chem. Chem. Phys. 7, 3297 (2005).

================================================================================
                                        WARNINGS
                       Please study these warnings very carefully!
================================================================================


WARNING: The frozen-core approximation for MP2-gradient calculations is turned on by default.

INFO   : the flag for use of LIBINT has been found!

================================================================================
                                       INPUT FILE
================================================================================
NAME = 5h2o.temelso.etal.dset.1h2o.dset-orca.engrad-mp2.def2tzvp.inp
|  1> # 5h2o.temelso.etal.dset.1h2o.dset-orca.engrad-mp2.def2tzvp
|  2> ! MP2 def2-TZVP EnGrad TightSCF FrozenCore
|  3> 
|  4> %pal
|  5>     nprocs 12
|  6> end
|  7> 
|  8> %maxcore 8000
|  9> 
| 10> %scf
| 11>     ConvForced true
| 12> end
| 13> 
| 14> *xyz 0 1
| 15> O   0.051497733  -0.033936474   0.025242561
| 16> H  -0.489202267  -0.284136474  -0.733757439
| 17> H  -0.328302267   0.822863526   0.333042561
| 18> *
| 19> 
| 20> 
| 21> $new_job
| 22> 
| 23> # 5h2o.temelso.etal.dset.1h2o.dset-orca.engrad-mp2.def2tzvp
| 24> ! MP2 def2-TZVP EnGrad TightSCF FrozenCore
| 25> 
| 26> %pal
| 27>     nprocs 12
| 28> end
| 29> 
| 30> %maxcore 8000
| 31> 
| 32> %scf
| 33>     ConvForced true
| 34> end
| 35> 
| 36> *xyz 0 1
| 37> O  -0.013376543  -0.041500291  -0.050115882
| 38> H   0.706923457   0.628799709   0.012884118
| 39> H  -0.494576543   0.029999709   0.782684118
| 40> *
| 41> 
| 42> 
| 43> $new_job
| 44> 
| 45> # 5h2o.temelso.etal.dset.1h2o.dset-orca.engrad-mp2.def2tzvp
| 46> ! MP2 def2-TZVP EnGrad TightSCF FrozenCore
| 47> 
| 48> %pal
| 49>     nprocs 12
| 50> end
| 51> 
| 52> %maxcore 8000
| 53> 
| 54> %scf
| 55>     ConvForced true
| 56> end
| 57> 
| 58> *xyz 0 1
| 59> O  -0.059760867   0.001342689  -0.030042675
| 60> H   0.185339133   0.440642689   0.793257325
| 61> H   0.763339133  -0.461957311  -0.316342675
| 62> *
| 63> 
| 64> 
| 65> $new_job
| 66> 
| 67> # 5h2o.temelso.etal.dset.1h2o.dset-orca.engrad-mp2.def2tzvp
| 68> ! MP2 def2-TZVP EnGrad TightSCF FrozenCore
| 69> 
| 70> %pal
| 71>     nprocs 12
| 72> end
| 73> 
| 74> %maxcore 8000
| 75> 
| 76> %scf
| 77>     ConvForced true
| 78> end
| 79> 
| 80> *xyz 0 1
| 81> O  -0.013432488   0.036588286   0.054199895
| 82> H  -0.221732488  -0.913211714  -0.112900105
| 83> H   0.434967512   0.332388286  -0.747500105
| 84> *
| 85> 
| 86> 
| 87> $new_job
| 88> 
| 89> # 5h2o.temelso.etal.dset.1h2o.dset-orca.engrad-mp2.def2tzvp
| 90> ! MP2 def2-TZVP EnGrad TightSCF FrozenCore
| 91> 
| 92> %pal
| 93>     nprocs 12
| 94> end
| 95> 
| 96> %maxcore 8000
| 97> 
| 98> %scf
| 99>     ConvForced true
|100> end
|101> 
|102> *xyz 0 1
|103> O   0.032218951   0.046904616  -0.034361659
|104> H  -0.941281049  -0.077695384   0.066938341
|105> H   0.429818951  -0.666895384   0.478538341
|106> *
|107> 
|108> 
|109> $new_job
|110> 
|111> # 5h2o.temelso.etal.dset.1h2o.dset-orca.engrad-mp2.def2tzvp
|112> ! MP2 def2-TZVP EnGrad TightSCF FrozenCore
|113> 
|114> %pal
|115>     nprocs 12
|116> end
|117> 
|118> %maxcore 8000
|119> 
|120> %scf
|121>     ConvForced true
|122> end
|123> 
|124> *xyz 0 1
|125> O   0.048085064   0.045478009  -0.003619667
|126> H  -0.084714936  -0.752821991  -0.573019667
|127> H  -0.678614936   0.030878009   0.630480333
|128> *
|129> 
|130> 
|131> $new_job
|132> 
|133> # 5h2o.temelso.etal.dset.1h2o.dset-orca.engrad-mp2.def2tzvp
|134> ! MP2 def2-TZVP EnGrad TightSCF FrozenCore
|135> 
|136> %pal
|137>     nprocs 12
|138> end
|139> 
|140> %maxcore 8000
|141> 
|142> %scf
|143>     ConvForced true
|144> end
|145> 
|146> *xyz 0 1
|147> O  -0.039184152   0.008979235   0.053522956
|148> H   0.911215848  -0.254220765   0.023622956
|149> H  -0.289184152   0.111679235  -0.873277044
|150> *
|151> 
|152> 
|153> $new_job
|154> 
|155> # 5h2o.temelso.etal.dset.1h2o.dset-orca.engrad-mp2.def2tzvp
|156> ! MP2 def2-TZVP EnGrad TightSCF FrozenCore
|157> 
|158> %pal
|159>     nprocs 12
|160> end
|161> 
|162> %maxcore 8000
|163> 
|164> %scf
|165>     ConvForced true
|166> end
|167> 
|168> *xyz 0 1
|169> O  -0.042233176  -0.008598807  -0.050434770
|170> H   0.460766824  -0.696698807   0.401465230
|171> H   0.209666824   0.833201193   0.399165230
|172> *
|173> 
|174> 
|175> $new_job
|176> 
|177> # 5h2o.temelso.etal.dset.1h2o.dset-orca.engrad-mp2.def2tzvp
|178> ! MP2 def2-TZVP EnGrad TightSCF FrozenCore
|179> 
|180> %pal
|181>     nprocs 12
|182> end
|183> 
|184> %maxcore 8000
|185> 
|186> %scf
|187>     ConvForced true
|188> end
|189> 
|190> *xyz 0 1
|191> O   0.054535567  -0.043027600   0.001236393
|192> H  -0.093764433   0.761072400  -0.531263607
|193> H  -0.771964433  -0.078027600   0.511636393
|194> *
|195> 
|196> 
|197> $new_job
|198> 
|199> # 5h2o.temelso.etal.dset.1h2o.dset-orca.engrad-mp2.def2tzvp
|200> ! MP2 def2-TZVP EnGrad TightSCF FrozenCore
|201> 
|202> %pal
|203>     nprocs 12
|204> end
|205> 
|206> %maxcore 8000
|207> 
|208> %scf
|209>     ConvForced true
|210> end
|211> 
|212> *xyz 0 1
|213> O   0.038870858  -0.020414473  -0.049584400
|214> H   0.044070858   0.846285527   0.374915600
|215> H  -0.661129142  -0.522214473   0.412215600
|216> *
|217> 
|218> 
|219> $new_job
|220> 
|221> # 5h2o.temelso.etal.dset.1h2o.dset-orca.engrad-mp2.def2tzvp
|222> ! MP2 def2-TZVP EnGrad TightSCF FrozenCore
|223> 
|224> %pal
|225>     nprocs 12
|226> end
|227> 
|228> %maxcore 8000
|229> 
|230> %scf
|231>     ConvForced true
|232> end
|233> 
|234> *xyz 0 1
|235> O  -0.033153239  -0.043872376   0.041114268
|236> H   0.772546761  -0.183072376  -0.485585732
|237> H  -0.246253239   0.879527624  -0.167085732
|238> *
|239> 
|240> 
|241> $new_job
|242> 
|243> # 5h2o.temelso.etal.dset.1h2o.dset-orca.engrad-mp2.def2tzvp
|244> ! MP2 def2-TZVP EnGrad TightSCF FrozenCore
|245> 
|246> %pal
|247>     nprocs 12
|248> end
|249> 
|250> %maxcore 8000
|251> 
|252> %scf
|253>     ConvForced true
|254> end
|255> 
|256> *xyz 0 1
|257> O  -0.027883183   0.039682066   0.045086391
|258> H  -0.446483183  -0.700317934  -0.462413609
|259> H   0.889116817   0.070382066  -0.253313609
|260> *
|261> 
|262> 
|263> $new_job
|264> 
|265> # 5h2o.temelso.etal.dset.1h2o.dset-orca.engrad-mp2.def2tzvp
|266> ! MP2 def2-TZVP EnGrad TightSCF FrozenCore
|267> 
|268> %pal
|269>     nprocs 12
|270> end
|271> 
|272> %maxcore 8000
|273> 
|274> %scf
|275>     ConvForced true
|276> end
|277> 
|278> *xyz 0 1
|279> O  -0.030462266  -0.051508922  -0.035273569
|280> H   0.409237734  -0.066708922   0.838426431
|281> H   0.074337734   0.884391078  -0.278473569
|282> *
|283> 
|284> 
|285> $new_job
|286> 
|287> # 5h2o.temelso.etal.dset.1h2o.dset-orca.engrad-mp2.def2tzvp
|288> ! MP2 def2-TZVP EnGrad TightSCF FrozenCore
|289> 
|290> %pal
|291>     nprocs 12
|292> end
|293> 
|294> %maxcore 8000
|295> 
|296> %scf
|297>     ConvForced true
|298> end
|299> 
|300> *xyz 0 1
|301> O  -0.050675335  -0.020224259   0.036733744
|302> H   0.033724665   0.830975741  -0.409666256
|303> H   0.770724665  -0.509924259  -0.173466256
|304> *
|305> 
|306> 
|307> $new_job
|308> 
|309> # 5h2o.temelso.etal.dset.1h2o.dset-orca.engrad-mp2.def2tzvp
|310> ! MP2 def2-TZVP EnGrad TightSCF FrozenCore
|311> 
|312> %pal
|313>     nprocs 12
|314> end
|315> 
|316> %maxcore 8000
|317> 
|318> %scf
|319>     ConvForced true
|320> end
|321> 
|322> *xyz 0 1
|323> O   0.044862609   0.031553201  -0.038300215
|324> H  -0.776537391   0.394653201   0.377399785
|325> H   0.064362609  -0.895546799   0.230599785
|326> *
|327> 
|328> 
|329> $new_job
|330> 
|331> # 5h2o.temelso.etal.dset.1h2o.dset-orca.engrad-mp2.def2tzvp
|332> ! MP2 def2-TZVP EnGrad TightSCF FrozenCore
|333> 
|334> %pal
|335>     nprocs 12
|336> end
|337> 
|338> %maxcore 8000
|339> 
|340> %scf
|341>     ConvForced true
|342> end
|343> 
|344> *xyz 0 1
|345> O   0.009119099   0.042115691  -0.049522860
|346> H  -0.107480901   0.251215691   0.898377140
|347> H  -0.037280901  -0.919784309  -0.112222860
|348> *
|349> 
|350> 
|351> $new_job
|352> 
|353> # 5h2o.temelso.etal.dset.1h2o.dset-orca.engrad-mp2.def2tzvp
|354> ! MP2 def2-TZVP EnGrad TightSCF FrozenCore
|355> 
|356> %pal
|357>     nprocs 12
|358> end
|359> 
|360> %maxcore 8000
|361> 
|362> %scf
|363>     ConvForced true
|364> end
|365> 
|366> *xyz 0 1
|367> O  -0.052208239  -0.029455249  -0.027211838
|368> H   0.709491761   0.408244751  -0.485811838
|369> H   0.119291761   0.059344751   0.917788162
|370> *
|371> 
|372> 
|373> $new_job
|374> 
|375> # 5h2o.temelso.etal.dset.1h2o.dset-orca.engrad-mp2.def2tzvp
|376> ! MP2 def2-TZVP EnGrad TightSCF FrozenCore
|377> 
|378> %pal
|379>     nprocs 12
|380> end
|381> 
|382> %maxcore 8000
|383> 
|384> %scf
|385>     ConvForced true
|386> end
|387> 
|388> *xyz 0 1
|389> O   0.029981135   0.008285512   0.060225214
|390> H  -0.081818865  -0.814214488  -0.442074786
|391> H  -0.394118865   0.682685512  -0.513974786
|392> *
|393> 
|394> 
|395> $new_job
|396> 
|397> # 5h2o.temelso.etal.dset.1h2o.dset-orca.engrad-mp2.def2tzvp
|398> ! MP2 def2-TZVP EnGrad TightSCF FrozenCore
|399> 
|400> %pal
|401>     nprocs 12
|402> end
|403> 
|404> %maxcore 8000
|405> 
|406> %scf
|407>     ConvForced true
|408> end
|409> 
|410> *xyz 0 1
|411> O   0.044012239   0.027670591   0.041058323
|412> H  -0.742687761  -0.515929409   0.270758323
|413> H   0.044012239   0.076670591  -0.922541677
|414> *
|415> 
|416> 
|417> $new_job
|418> 
|419> # 5h2o.temelso.etal.dset.1h2o.dset-orca.engrad-mp2.def2tzvp
|420> ! MP2 def2-TZVP EnGrad TightSCF FrozenCore
|421> 
|422> %pal
|423>     nprocs 12
|424> end
|425> 
|426> %maxcore 8000
|427> 
|428> %scf
|429>     ConvForced true
|430> end
|431> 
|432> *xyz 0 1
|433> O  -0.032728054   0.046126975  -0.039435906
|434> H   0.113671946   0.051726975   0.921664094
|435> H   0.405871946  -0.783973025  -0.295635906
|436> *
|437> 
|438> 
|439> $new_job
|440> 
|441> # 5h2o.temelso.etal.dset.1h2o.dset-orca.engrad-mp2.def2tzvp
|442> ! MP2 def2-TZVP EnGrad TightSCF FrozenCore
|443> 
|444> %pal
|445>     nprocs 12
|446> end
|447> 
|448> %maxcore 8000
|449> 
|450> %scf
|451>     ConvForced true
|452> end
|453> 
|454> *xyz 0 1
|455> O  -0.023306850   0.042266743   0.045175903
|456> H  -0.524606850  -0.624133257  -0.478324097
|457> H   0.894593150  -0.046833257  -0.238824097
|458> *
|459> 
|460> 
|461> $new_job
|462> 
|463> # 5h2o.temelso.etal.dset.1h2o.dset-orca.engrad-mp2.def2tzvp
|464> ! MP2 def2-TZVP EnGrad TightSCF FrozenCore
|465> 
|466> %pal
|467>     nprocs 12
|468> end
|469> 
|470> %maxcore 8000
|471> 
|472> %scf
|473>     ConvForced true
|474> end
|475> 
|476> *xyz 0 1
|477> O   0.048969001   0.021723595  -0.039956198
|478> H  -0.739330999   0.511123595   0.281343802
|479> H  -0.038030999  -0.855976405   0.352943802
|480> *
|481> 
|482> 
|483> $new_job
|484> 
|485> # 5h2o.temelso.etal.dset.1h2o.dset-orca.engrad-mp2.def2tzvp
|486> ! MP2 def2-TZVP EnGrad TightSCF FrozenCore
|487> 
|488> %pal
|489>     nprocs 12
|490> end
|491> 
|492> %maxcore 8000
|493> 
|494> %scf
|495>     ConvForced true
|496> end
|497> 
|498> *xyz 0 1
|499> O   0.024129247   0.002025223  -0.061316149
|500> H  -0.898070753  -0.143174777   0.182383851
|501> H   0.515029247   0.111025223   0.790983851
|502> *
|503> 
|504> 
|505> $new_job
|506> 
|507> # 5h2o.temelso.etal.dset.1h2o.dset-orca.engrad-mp2.def2tzvp
|508> ! MP2 def2-TZVP EnGrad TightSCF FrozenCore
|509> 
|510> %pal
|511>     nprocs 12
|512> end
|513> 
|514> %maxcore 8000
|515> 
|516> %scf
|517>     ConvForced true
|518> end
|519> 
|520> *xyz 0 1
|521> O  -0.049987207  -0.027743320   0.039586959
|522> H   0.008012793   0.861056680  -0.361213041
|523> H   0.785512793  -0.420643320  -0.267213041
|524> *
|525> 
|526> 
|527> $new_job
|528> 
|529> # 5h2o.temelso.etal.dset.1h2o.dset-orca.engrad-mp2.def2tzvp
|530> ! MP2 def2-TZVP EnGrad TightSCF FrozenCore
|531> 
|532> %pal
|533>     nprocs 12
|534> end
|535> 
|536> %maxcore 8000
|537> 
|538> %scf
|539>     ConvForced true
|540> end
|541> 
|542> *xyz 0 1
|543> O   0.001365068   0.061976304   0.027849616
|544> H  -0.763334932  -0.436223696  -0.301450384
|545> H   0.741665068  -0.547623696  -0.140650384
|546> *
|547> 
|548> 
|549> $new_job
|550> 
|551> # 5h2o.temelso.etal.dset.1h2o.dset-orca.engrad-mp2.def2tzvp
|552> ! MP2 def2-TZVP EnGrad TightSCF FrozenCore
|553> 
|554> %pal
|555>     nprocs 12
|556> end
|557> 
|558> %maxcore 8000
|559> 
|560> %scf
|561>     ConvForced true
|562> end
|563> 
|564> *xyz 0 1
|565> O   0.042725495   0.000833586   0.051464165
|566> H  -0.924774505  -0.168666414   0.062664165
|567> H   0.246525495   0.155433586  -0.879635835
|568> *
|569> 
|570> 
|571> $new_job
|572> 
|573> # 5h2o.temelso.etal.dset.1h2o.dset-orca.engrad-mp2.def2tzvp
|574> ! MP2 def2-TZVP EnGrad TightSCF FrozenCore
|575> 
|576> %pal
|577>     nprocs 12
|578> end
|579> 
|580> %maxcore 8000
|581> 
|582> %scf
|583>     ConvForced true
|584> end
|585> 
|586> *xyz 0 1
|587> O   0.029628679  -0.010948513  -0.058569230
|588> H  -0.189171321   0.847751487   0.359030770
|589> H  -0.281171321  -0.673948513   0.570730770
|590> *
|591> 
|592> 
|593> $new_job
|594> 
|595> # 5h2o.temelso.etal.dset.1h2o.dset-orca.engrad-mp2.def2tzvp
|596> ! MP2 def2-TZVP EnGrad TightSCF FrozenCore
|597> 
|598> %pal
|599>     nprocs 12
|600> end
|601> 
|602> %maxcore 8000
|603> 
|604> %scf
|605>     ConvForced true
|606> end
|607> 
|608> *xyz 0 1
|609> O  -0.026993651  -0.010836622  -0.059257358
|610> H  -0.506893651   0.218163378   0.746242642
|611> H   0.935406349  -0.046136622   0.194442642
|612> *
|613> 
|614> 
|615> $new_job
|616> 
|617> # 5h2o.temelso.etal.dset.1h2o.dset-orca.engrad-mp2.def2tzvp
|618> ! MP2 def2-TZVP EnGrad TightSCF FrozenCore
|619> 
|620> %pal
|621>     nprocs 12
|622> end
|623> 
|624> %maxcore 8000
|625> 
|626> %scf
|627>     ConvForced true
|628> end
|629> 
|630> *xyz 0 1
|631> O  -0.012626875   0.007244928   0.066077102
|632> H  -0.028226875   0.693544928  -0.625022898
|633> H   0.228673125  -0.808555072  -0.423922898
|634> *
|635> 
|636> 
|637> $new_job
|638> 
|639> # 5h2o.temelso.etal.dset.1h2o.dset-orca.engrad-mp2.def2tzvp
|640> ! MP2 def2-TZVP EnGrad TightSCF FrozenCore
|641> 
|642> %pal
|643>     nprocs 12
|644> end
|645> 
|646> %maxcore 8000
|647> 
|648> %scf
|649>     ConvForced true
|650> end
|651> 
|652> *xyz 0 1
|653> O   0.049343835  -0.030132188  -0.032851134
|654> H  -0.065156165   0.917067812   0.115548866
|655> H  -0.718156165  -0.438732188   0.405948866
|656> *
|657> 
|658> 
|659> $new_job
|660> 
|661> # 5h2o.temelso.etal.dset.1h2o.dset-orca.engrad-mp2.def2tzvp
|662> ! MP2 def2-TZVP EnGrad TightSCF FrozenCore
|663> 
|664> %pal
|665>     nprocs 12
|666> end
|667> 
|668> %maxcore 8000
|669> 
|670> %scf
|671>     ConvForced true
|672> end
|673> 
|674> *xyz 0 1
|675> O   0.041774424   0.048443114  -0.018098334
|676> H  -0.908425576  -0.048156886  -0.240298334
|677> H   0.245274424  -0.720856886   0.527601666
|678> *
|679> 
|680> 
|681> $new_job
|682> 
|683> # 5h2o.temelso.etal.dset.1h2o.dset-orca.engrad-mp2.def2tzvp
|684> ! MP2 def2-TZVP EnGrad TightSCF FrozenCore
|685> 
|686> %pal
|687>     nprocs 12
|688> end
|689> 
|690> %maxcore 8000
|691> 
|692> %scf
|693>     ConvForced true
|694> end
|695> 
|696> *xyz 0 1
|697> O   0.040342222  -0.025471937  -0.046753564
|698> H  -0.112457778   0.915528063   0.178646436
|699> H  -0.527957778  -0.511171937   0.563546436
|700> *
|701> 
|702> 
|703> $new_job
|704> 
|705> # 5h2o.temelso.etal.dset.1h2o.dset-orca.engrad-mp2.def2tzvp
|706> ! MP2 def2-TZVP EnGrad TightSCF FrozenCore
|707> 
|708> %pal
|709>     nprocs 12
|710> end
|711> 
|712> %maxcore 8000
|713> 
|714> %scf
|715>     ConvForced true
|716> end
|717> 
|718> *xyz 0 1
|719> O  -0.019155702  -0.013980753  -0.061786090
|720> H  -0.579855702   0.347519247   0.635713910
|721> H   0.883944298  -0.125580753   0.345113910
|722> *
|723> 
|724> 
|725> $new_job
|726> 
|727> # 5h2o.temelso.etal.dset.1h2o.dset-orca.engrad-mp2.def2tzvp
|728> ! MP2 def2-TZVP EnGrad TightSCF FrozenCore
|729> 
|730> %pal
|731>     nprocs 12
|732> end
|733> 
|734> %maxcore 8000
|735> 
|736> %scf
|737>     ConvForced true
|738> end
|739> 
|740> *xyz 0 1
|741> O  -0.024420163   0.013756972   0.060532913
|742> H   0.168579837   0.645456972  -0.656067087
|743> H   0.219079837  -0.863843028  -0.304867087
|744> *
|745> 
|746> 
|747> $new_job
|748> 
|749> # 5h2o.temelso.etal.dset.1h2o.dset-orca.engrad-mp2.def2tzvp
|750> ! MP2 def2-TZVP EnGrad TightSCF FrozenCore
|751> 
|752> %pal
|753>     nprocs 12
|754> end
|755> 
|756> %maxcore 8000
|757> 
|758> %scf
|759>     ConvForced true
|760> end
|761> 
|762> *xyz 0 1
|763> O   0.052487966  -0.031866495  -0.025829987
|764> H  -0.015512034   0.904633505   0.199870013
|765> H  -0.817712034  -0.398766495   0.210170013
|766> *
|767> 
|768>                          ****END OF INPUT****
================================================================================


                 $$$$$$$$$$$$$$$$$$$$$$$$$$$$$$$$$$$$$$$$$$$$$$ 
                 $ THERE ARE 35 JOBS TO BE PROCESSED THIS RUN $
                 $$$$$$$$$$$$$$$$$$$$$$$$$$$$$$$$$$$$$$$$$$$$$$ 




                 $$$$$$$$$$$$$$$$  JOB NUMBER  1 $$$$$$$$$$$$$$


                     *******************************
                     * Energy+Gradient Calculation *
                     *******************************

---------------------------------
CARTESIAN COORDINATES (ANGSTROEM)
---------------------------------
  O      0.051498   -0.033936    0.025243
  H     -0.489202   -0.284136   -0.733757
  H     -0.328302    0.822864    0.333043

----------------------------
CARTESIAN COORDINATES (A.U.)
----------------------------
  NO LB      ZA    FRAG     MASS         X           Y           Z
   0 O     8.0000    0    15.999    0.097317   -0.064131    0.047702
   1 H     1.0000    0     1.008   -0.924458   -0.536940   -1.386601
   2 H     1.0000    0     1.008   -0.620401    1.554987    0.629359

--------------------------------
INTERNAL COORDINATES (ANGSTROEM)
--------------------------------
 O      0   0   0     0.000000000000     0.00000000     0.00000000
 H      1   0   0     0.964902860396     0.00000000     0.00000000
 H      1   2   0     0.986455837836   104.76835687     0.00000000

---------------------------
INTERNAL COORDINATES (A.U.)
---------------------------
 O      0   0   0     0.000000000000     0.00000000     0.00000000
 H      1   0   0     1.823402151985     0.00000000     0.00000000
 H      1   2   0     1.864131376717   104.76835687     0.00000000

---------------------
BASIS SET INFORMATION
---------------------
There are 2 groups of distinct atoms

 Group   1 Type O   : 11s6p2d1f contracted to 5s3p2d1f pattern {62111/411/11/1}
 Group   2 Type H   : 5s1p contracted to 3s1p pattern {311/1}

Atom   0O    basis set group =>   1
Atom   1H    basis set group =>   2
Atom   2H    basis set group =>   2


           ************************************************************
           *        Program running with 12 parallel MPI-processes    *
           *              working on a common directory               *
           ************************************************************
------------------------------------------------------------------------------
                           ORCA GTO INTEGRAL CALCULATION
------------------------------------------------------------------------------

                         BASIS SET STATISTICS AND STARTUP INFO

 # of primitive gaussian shells          ...   32
 # of primitive gaussian functions       ...   62
 # of contracted shells                  ...   19
 # of contracted basis functions         ...   43
 Highest angular momentum                ...    3
 Maximum contraction depth               ...    6
 Integral package used                   ... LIBINT
 Integral threshhold            Thresh   ...  2.500e-11
 Primitive cut-off              TCut     ...  2.500e-12


------------------------------ INTEGRAL EVALUATION ----------------------------


 * One electron integrals 
 Pre-screening matrix                    ... done
 Shell pair data                         ... done (   0.000 sec)



           ************************************************************
           *        Program running with 12 parallel MPI-processes    *
           *              working on a common directory               *
           ************************************************************
-------------------------------------------------------------------------------
                                 ORCA SCF
-------------------------------------------------------------------------------

------------
SCF SETTINGS
------------
Hamiltonian:
 Ab initio Hamiltonian  Method          .... Hartree-Fock(GTOs)


General Settings:
 Integral files         IntName         .... 5h2o.temelso.etal.dset.1h2o.dset-orca.engrad-mp2.def2tzvp
 Hartree-Fock type      HFTyp           .... RHF
 Total Charge           Charge          ....    0
 Multiplicity           Mult            ....    1
 Number of Electrons    NEL             ....   10
 Basis Dimension        Dim             ....   43
 Nuclear Repulsion      ENuc            ....      9.0212852330 Eh

Convergence Acceleration:
 DIIS                   CNVDIIS         .... on
   Start iteration      DIISMaxIt       ....    12
   Startup error        DIISStart       ....  0.200000
   # of expansion vecs  DIISMaxEq       ....     5
   Bias factor          DIISBfac        ....   1.050
   Max. coefficient     DIISMaxC        ....  10.000
 Newton-Raphson         CNVNR           .... off
 SOSCF                  CNVSOSCF        .... on
   Start iteration      SOSCFMaxIt      ....   150
   Startup grad/error   SOSCFStart      ....  0.003300
 Level Shifting         CNVShift        .... on
   Level shift para.    LevelShift      ....    0.2500
   Turn off err/grad.   ShiftErr        ....    0.0010
 Zerner damping         CNVZerner       .... off
 Static damping         CNVDamp         .... on
   Fraction old density DampFac         ....    0.7000
   Max. Damping (<1)    DampMax         ....    0.9800
   Min. Damping (>=0)   DampMin         ....    0.0000
   Turn off err/grad.   DampErr         ....    0.1000
 Fernandez-Rico         CNVRico         .... off

SCF Procedure:
 Maximum # iterations   MaxIter         ....   125
 SCF integral mode      SCFMode         .... Direct
   Integral package                     .... LIBINT
 Reset frequency        DirectResetFreq ....    20
 Integral Threshold     Thresh          ....  2.500e-11 Eh
 Primitive CutOff       TCut            ....  2.500e-12 Eh

Convergence Tolerance:
 Convergence Check Mode ConvCheckMode   .... Total+1el-Energy
 Convergence forced     ConvForced      .... 1
 Energy Change          TolE            ....  1.000e-08 Eh
 1-El. energy change                    ....  1.000e-05 Eh
 Orbital Gradient       TolG            ....  1.000e-05
 Orbital Rotation angle TolX            ....  1.000e-05
 DIIS Error             TolErr          ....  5.000e-07


Diagonalization of the overlap matrix:
Smallest eigenvalue                        ... 8.951e-03
Time for diagonalization                   ...    0.001 sec
Threshold for overlap eigenvalues          ... 1.000e-08
Number of eigenvalues below threshold      ... 0
Time for construction of square roots      ...    0.000 sec
Total time needed                          ...    0.001 sec

-------------------
DFT GRID GENERATION
-------------------

General Integration Accuracy     IntAcc      ...  4.340
Radial Grid Type                 RadialGrid  ... Gauss-Chebyshev
Angular Grid (max. acc.)         AngularGrid ... Lebedev-110
Angular grid pruning method      GridPruning ... 3 (G Style)
Weight generation scheme         WeightScheme... Becke
Basis function cutoff            BFCut       ...    1.0000e-11
Integration weight cutoff        WCut        ...    1.0000e-14
Grids for H and He will be reduced by one unit

# of grid points (after initial pruning)     ...   3304 (   0.0 sec)
# of grid points (after weights+screening)   ...   3275 (   0.0 sec)
nearest neighbour list constructed           ...    0.0 sec
Grid point re-assignment to atoms done       ...    0.0 sec
Grid point division into batches done        ...    0.0 sec
Reduced shell lists constructed in    0.0 sec

Total number of grid points                  ...     3275
Total number of batches                      ...       52
Average number of points per batch           ...       62
Average number of grid points per atom       ...     1092
Average number of shells per batch           ...    13.00 (68.42%)
Average number of basis functions per batch  ...    30.00 (69.77%)
Average number of large shells per batch     ...    11.33 (87.18%)
Average number of large basis fcns per batch ...    26.00 (86.67%)
Maximum spatial batch extension              ...  20.95, 15.12, 15.12 au
Average spatial batch extension              ...   1.24,  1.06,  1.04 au

Time for grid setup =    0.005 sec

------------------------------
INITIAL GUESS: MODEL POTENTIAL
------------------------------
Loading Hartree-Fock densities                     ... done
Calculating cut-offs                               ... done
Setting up the integral package                    ... done
Initializing the effective Hamiltonian             ... done
Starting the Coulomb interaction                   ... done (   0.0 sec)
Reading the grid                                   ... done
Mapping shells                                     ... done
Starting the XC term evaluation                    ... done (   0.0 sec)
Transforming the Hamiltonian                       ... done (   0.0 sec)
Diagonalizing the Hamiltonian                      ... done (   0.0 sec)
Back transforming the eigenvectors                 ... done (   0.0 sec)
Now organizing SCF variables                       ... done
                      ------------------
                      INITIAL GUESS DONE (   0.1 sec)
                      ------------------
--------------
SCF ITERATIONS
--------------
ITER       Energy         Delta-E        Max-DP      RMS-DP      [F,P]     Damp
               ***  Starting incremental Fock matrix formation  ***
  0    -75.9553358836   0.000000000000 0.04247692  0.00244095  0.3402284 0.7000
  1    -75.9959161079  -0.040580224269 0.02816720  0.00167186  0.2157458 0.7000
                               ***Turning on DIIS***
  2    -76.0169787186  -0.021062610686 0.01594848  0.00090583  0.1638147 0.7000
  3    -76.1943439701  -0.177365251543 0.00677227  0.00038273  0.1218843 0.7000
  4    -76.1572251960   0.037118774132 0.01424885  0.00086691  0.0862177 0.0000
  5    -76.0654189126   0.091806283408 0.00176078  0.00013730  0.0050117 0.0000
                      *** Initiating the SOSCF procedure ***
                           *** Shutting down DIIS ***
                      *** Re-Reading the Fockian *** 
                      *** Removing any level shift *** 
ITER      Energy       Delta-E        Grad      Rot      Max-DP    RMS-DP
  6    -76.05905850   0.0063604079  0.001158  0.001158  0.000964  0.000078
               *** Restarting incremental Fock matrix formation ***
  7    -76.05708190   0.0019766071  0.000380  0.000540  0.000292  0.000034
  8    -76.05708316  -0.0000012655  0.000227  0.000405  0.000321  0.000028
  9    -76.05708346  -0.0000002958  0.000069  0.000057  0.000067  0.000005
 10    -76.05708348  -0.0000000246  0.000008  0.000008  0.000006  0.000001
 11    -76.05708348  -0.0000000005  0.000003  0.000004  0.000003  0.000000
                 **** Energy Check signals convergence ****
              ***Rediagonalizing the Fockian in SOSCF/NRSCF***

               *****************************************************
               *                     SUCCESS                       *
               *           SCF CONVERGED AFTER  12 CYCLES          *
               *****************************************************


----------------
TOTAL SCF ENERGY
----------------

Total Energy       :          -76.05708348 Eh           -2069.61846 eV

Components:
Nuclear Repulsion  :            9.02128523 Eh             245.48165 eV
Electronic Energy  :          -85.07836872 Eh           -2315.10011 eV
One Electron Energy:         -122.77205033 Eh           -3340.79733 eV
Two Electron Energy:           37.69368161 Eh            1025.69722 eV

Virial components:
Potential Energy   :         -151.99025040 Eh           -4135.86498 eV
Kinetic Energy     :           75.93316691 Eh            2066.24652 eV
Virial Ratio       :            2.00163192


---------------
SCF CONVERGENCE
---------------

  Last Energy change         ...   -6.2869e-11  Tolerance :   1.0000e-08
  Last MAX-Density change    ...    6.4442e-07  Tolerance :   1.0000e-07
  Last RMS-Density change    ...    4.5168e-08  Tolerance :   5.0000e-09
  Last Orbital Gradient      ...    4.6453e-07  Tolerance :   1.0000e-05
  Last Orbital Rotation      ...    6.9432e-07  Tolerance :   1.0000e-05

             **** THE GBW FILE WAS UPDATED (5h2o.temelso.etal.dset.1h2o.dset-orca.engrad-mp2.def2tzvp.gbw) ****
             **** DENSITY FILE WAS UPDATED (5h2o.temelso.etal.dset.1h2o.dset-orca.engrad-mp2.def2tzvp.scfp) ****
             **** ENERGY FILE WAS UPDATED (5h2o.temelso.etal.dset.1h2o.dset-orca.engrad-mp2.def2tzvp.en.tmp) ****
             **** THE GBW FILE WAS UPDATED (5h2o.temelso.etal.dset.1h2o.dset-orca.engrad-mp2.def2tzvp.gbw) ****
             **** DENSITY FILE WAS UPDATED (5h2o.temelso.etal.dset.1h2o.dset-orca.engrad-mp2.def2tzvp.scfp) ****
----------------
ORBITAL ENERGIES
----------------

  NO   OCC          E(Eh)            E(eV) 
   0   2.0000     -20.562912      -559.5453 
   1   2.0000      -1.340336       -36.4724 
   2   2.0000      -0.705327       -19.1929 
   3   2.0000      -0.577258       -15.7080 
   4   2.0000      -0.506509       -13.7828 
   5   0.0000       0.125735         3.4214 
   6   0.0000       0.195658         5.3241 
   7   0.0000       0.519123        14.1261 
   8   0.0000       0.564197        15.3526 
   9   0.0000       0.597730        16.2651 
  10   0.0000       0.633832        17.2474 
  11   0.0000       0.766483        20.8571 
  12   0.0000       0.769681        20.9441 
  13   0.0000       1.411403        38.4062 
  14   0.0000       1.436128        39.0790 
  15   0.0000       1.549123        42.1538 
  16   0.0000       1.784835        48.5678 
  17   0.0000       1.900835        51.7243 
  18   0.0000       2.013391        54.7872 
  19   0.0000       2.291218        62.3472 
  20   0.0000       2.335943        63.5643 
  21   0.0000       2.383951        64.8706 
  22   0.0000       2.577111        70.1268 
  23   0.0000       2.683013        73.0085 
  24   0.0000       2.923173        79.5436 
  25   0.0000       2.967936        80.7617 
  26   0.0000       3.023149        82.2641 
  27   0.0000       3.138828        85.4118 
  28   0.0000       3.998495       108.8046 
  29   0.0000       4.304257       117.1248 
  30   0.0000       5.549226       151.0021 
  31   0.0000       5.647108       153.6656 
  32   0.0000       5.817506       158.3024 
  33   0.0000       5.850004       159.1867 
  34   0.0000       5.902711       160.6209 
  35   0.0000       6.462379       175.8503 
  36   0.0000       6.695205       182.1858 
  37   0.0000       6.825762       185.7384 
  38   0.0000       6.886932       187.4030 
  39   0.0000       6.936358       188.7479 
  40   0.0000       7.364144       200.3885 
  41   0.0000       7.494950       203.9479 
  42   0.0000      44.813188      1219.4289 

                    ********************************
                    * MULLIKEN POPULATION ANALYSIS *
                    ********************************

-----------------------
MULLIKEN ATOMIC CHARGES
-----------------------
   0 O :   -0.693473
   1 H :    0.345540
   2 H :    0.347933
Sum of atomic charges:   -0.0000000

--------------------------------
MULLIKEN REDUCED ORBITAL CHARGES
--------------------------------
  0 O s       :     3.814272  s :     3.814272
      pz      :     1.584176  p :     4.851478
      px      :     1.739143
      py      :     1.528159
      dz2     :     0.004495  d :     0.026178
      dxz     :     0.009041
      dyz     :     0.001087
      dx2y2   :     0.004694
      dxy     :     0.006860
      f0      :     0.000129  f :     0.001546
      f+1     :     0.000415
      f-1     :     0.000191
      f+2     :     0.000259
      f-2     :     0.000241
      f+3     :     0.000278
      f-3     :     0.000034
  1 H s       :     0.608845  s :     0.608845
      pz      :     0.018079  p :     0.045615
      px      :     0.015338
      py      :     0.012197
  2 H s       :     0.608752  s :     0.608752
      pz      :     0.012369  p :     0.043315
      px      :     0.012927
      py      :     0.018019


                     *******************************
                     * LOEWDIN POPULATION ANALYSIS *
                     *******************************

----------------------
LOEWDIN ATOMIC CHARGES
----------------------
   0 O :   -0.334045
   1 H :    0.159519
   2 H :    0.174526

-------------------------------
LOEWDIN REDUCED ORBITAL CHARGES
-------------------------------
  0 O s       :     3.475907  s :     3.475907
      pz      :     1.572307  p :     4.822382
      px      :     1.728094
      py      :     1.521982
      dz2     :     0.005792  d :     0.033557
      dxz     :     0.011597
      dyz     :     0.002589
      dx2y2   :     0.005626
      dxy     :     0.007951
      f0      :     0.000163  f :     0.002199
      f+1     :     0.000691
      f-1     :     0.000193
      f+2     :     0.000274
      f-2     :     0.000327
      f+3     :     0.000490
      f-3     :     0.000061
  1 H s       :     0.679462  s :     0.679462
      pz      :     0.069012  p :     0.161019
      px      :     0.056893
      py      :     0.035114
  2 H s       :     0.674572  s :     0.674572
      pz      :     0.035553  p :     0.150902
      px      :     0.043731
      py      :     0.071619


                      *****************************
                      * MAYER POPULATION ANALYSIS *
                      *****************************

  NA   - Mulliken gross atomic population
  ZA   - Total nuclear charge
  QA   - Mulliken gross atomic charge
  VA   - Mayer's total valence
  BVA  - Mayer's bonded valence
  FA   - Mayer's free valence

  ATOM       NA         ZA         QA         VA         BVA        FA
  0 O      8.6935     8.0000    -0.6935     1.7775     1.7775    -0.0000
  1 H      0.6545     1.0000     0.3455     0.8950     0.8950    -0.0000
  2 H      0.6521     1.0000     0.3479     0.8919     0.8919     0.0000

  Mayer bond orders larger than 0.100000
B(  0-O ,  1-H ) :   0.8903 B(  0-O ,  2-H ) :   0.8872 

-------
TIMINGS
-------

Total SCF time: 0 days 0 hours 0 min 1 sec 

Total time                  ....       1.254 sec
Sum of individual times     ....       1.108 sec  ( 88.4%)

Fock matrix formation       ....       1.026 sec  ( 81.8%)
Diagonalization             ....       0.002 sec  (  0.2%)
Density matrix formation    ....       0.001 sec  (  0.1%)
Population analysis         ....       0.002 sec  (  0.1%)
Initial guess               ....       0.070 sec  (  5.5%)
Orbital Transformation      ....       0.000 sec  (  0.0%)
Orbital Orthonormalization  ....       0.000 sec  (  0.0%)
DIIS solution               ....       0.001 sec  (  0.1%)
SOSCF solution              ....       0.002 sec  (  0.1%)


           ************************************************************
           *        Program running with 12 parallel MPI-processes    *
           *              working on a common directory               *
           ************************************************************

------------------------------------------------------------------------------
                                ORCA  MP2 
------------------------------------------------------------------------------

Freezing NCore=2 chemical core electrons
MP2 will be done in the AO integral direct mode
The Q1-step will be done using symmetric double matrices
Dimension of the basis                    ...   43
Memory devoted for MP2                    ... 8000 MB   
Memory needed for all in one shot         ...    1 MB
Number of MOs that can be treated together... 25776      
MP2 density construction                  ... relaxed
The MP2 gradient is requested => amplitudes will be stored on disk
Total number of MOs              ...    4
Number of MOs treated per batch  ...    1 
Number of batches necessary      ...    1 
OPERATORS   0/  0 PASS   0
-----------------------------------------------
 MP2 CORRELATION ENERGY   :     -0.255424812 Eh
-----------------------------------------------


---------------------
MP2 DENSITY FORMATION
---------------------

Completing the external part of the density      ... done
Storing the unrelaxed density                    ... done

Calculating G(D)                                 ... done
Completing the Lagrangian                        ... done
Solving the Z-vector equations                   ... 

------------------------------------------------------------------------------
                           ORCA CP-SCF CALCULATION
------------------------------------------------------------------------------

Input orbitals are from        ... 5h2o.temelso.etal.dset.1h2o.dset-orca.engrad-mp2.def2tzvp.gbw
Input Perturbation             ... 5h2o.temelso.etal.dset.1h2o.dset-orca.engrad-mp2.def2tzvp.pin.tmp
Wavefunction output            ... 5h2o.temelso.etal.dset.1h2o.dset-orca.engrad-mp2.def2tzvp.pout.tmp
Perturbation mode              ... Real perturbation (singlet)
Solver                         ... POPLE
Max. number of iterations      ... 128
Convergence tolerance          ... 1.000e-08
Integral handling              ... Direct
Number of perturbations        ... 1
Number of operators            ... 1
Orbital ranges used for CP-SCF:
 Operator 0:  Orbitals   0...  4  to   5... 42
Variables per vector in CP-SCF ... 190
Number of vectors sought       ... 1
     CP-SCF ITERATION   0: 
     CP-SCF ITERATION   1:      0.000106832056
     CP-SCF ITERATION   2:      0.000001956385
     CP-SCF ITERATION   3:      0.000000052051
     CP-SCF ITERATION   4:      0.000000000677
                                                 ... done
Finalizing the relaxed density                   ... done
Transforming P to the AO basis                   ... done
Storing the relaxed density                      ... done

------------------------------------
ENERGY WEIGHTED DENSITY FINALIZATION
------------------------------------

Gathering the parts of the W-matrix              ...                                                      done
Forming the Z-density                            ... done
Transforming Z to the AO basis                   ... done
Calculating G(Z)                                 ... done
Finalizing the W-matrix                          ...                                                      done
Transforming W to the AO basis and storing       ... done

                *********************************************
                * UNRELAXED MP2 DENSITY POPULATION ANALYSIS *
                *********************************************

------------------------------------------------------------------------------
                           ORCA POPULATION ANALYSIS
------------------------------------------------------------------------------
Input electron density              ... 5h2o.temelso.etal.dset.1h2o.dset-orca.engrad-mp2.def2tzvp.pmp2ur
BaseName (.gbw .S,...)              ... 5h2o.temelso.etal.dset.1h2o.dset-orca.engrad-mp2.def2tzvp

                    ********************************
                    * MULLIKEN POPULATION ANALYSIS *
                    ********************************

-----------------------
MULLIKEN ATOMIC CHARGES
-----------------------
   0 O :   -0.688775
   1 H :    0.343328
   2 H :    0.345447
Sum of atomic charges:   -0.0000000

--------------------------------
MULLIKEN REDUCED ORBITAL CHARGES
--------------------------------
  0 O s       :     3.809451  s :     3.809451
      pz      :     1.575094  p :     4.822798
      px      :     1.728384
      py      :     1.519320
      dz2     :     0.009824  d :     0.052439
      dxz     :     0.014157
      dyz     :     0.006412
      dx2y2   :     0.009985
      dxy     :     0.012060
      f0      :     0.000493  f :     0.004087
      f+1     :     0.000777
      f-1     :     0.000549
      f+2     :     0.000621
      f-2     :     0.000603
      f+3     :     0.000640
      f-3     :     0.000404
  1 H s       :     0.609409  s :     0.609409
      pz      :     0.018369  p :     0.047263
      px      :     0.015996
      py      :     0.012898
  2 H s       :     0.609604  s :     0.609604
      pz      :     0.013062  p :     0.044949
      px      :     0.013717
      py      :     0.018170


                     *******************************
                     * LOEWDIN POPULATION ANALYSIS *
                     *******************************

----------------------
LOEWDIN ATOMIC CHARGES
----------------------
   0 O :   -0.331353
   1 H :    0.158335
   2 H :    0.173018

-------------------------------
LOEWDIN REDUCED ORBITAL CHARGES
-------------------------------
  0 O s       :     3.472134  s :     3.472134
      pz      :     1.563037  p :     4.793414
      px      :     1.717462
      py      :     1.512914
      dz2     :     0.011204  d :     0.060873
      dxz     :     0.017239
      dyz     :     0.008004
      dx2y2   :     0.011018
      dxy     :     0.013408
      f0      :     0.000544  f :     0.004932
      f+1     :     0.001101
      f-1     :     0.000574
      f+2     :     0.000667
      f-2     :     0.000720
      f+3     :     0.000889
      f-3     :     0.000438
  1 H s       :     0.677496  s :     0.677496
      pz      :     0.070295  p :     0.164169
      px      :     0.058046
      py      :     0.035828
  2 H s       :     0.672865  s :     0.672865
      pz      :     0.036329  p :     0.154117
      px      :     0.044753
      py      :     0.073036


                      *****************************
                      * MAYER POPULATION ANALYSIS *
                      *****************************

  NA   - Mulliken gross atomic population
  ZA   - Total nuclear charge
  QA   - Mulliken gross atomic charge
  VA   - Mayer's total valence
  BVA  - Mayer's bonded valence
  FA   - Mayer's free valence

  ATOM       NA         ZA         QA         VA         BVA        FA
  0 O      8.6888     8.0000    -0.6888     2.0800     1.6953     0.3848
  1 H      0.6567     1.0000     0.3433     0.9008     0.8542     0.0466
  2 H      0.6546     1.0000     0.3454     0.8979     0.8497     0.0482

  Mayer bond orders larger than 0.100000
B(  0-O ,  1-H ) :   0.8499 B(  0-O ,  2-H ) :   0.8454 


                *******************************************
                * RELAXED MP2 DENSITY POPULATION ANALYSIS *
                *******************************************

------------------------------------------------------------------------------
                           ORCA POPULATION ANALYSIS
------------------------------------------------------------------------------
Input electron density              ... 5h2o.temelso.etal.dset.1h2o.dset-orca.engrad-mp2.def2tzvp.pmp2re
BaseName (.gbw .S,...)              ... 5h2o.temelso.etal.dset.1h2o.dset-orca.engrad-mp2.def2tzvp

                    ********************************
                    * MULLIKEN POPULATION ANALYSIS *
                    ********************************

-----------------------
MULLIKEN ATOMIC CHARGES
-----------------------
   0 O :   -0.676192
   1 H :    0.336909
   2 H :    0.339283
Sum of atomic charges:   -0.0000000

--------------------------------
MULLIKEN REDUCED ORBITAL CHARGES
--------------------------------
  0 O s       :     3.814498  s :     3.814498
      pz      :     1.571258  p :     4.807573
      px      :     1.721527
      py      :     1.514788
      dz2     :     0.009383  d :     0.050108
      dxz     :     0.013301
      dyz     :     0.006260
      dx2y2   :     0.009657
      dxy     :     0.011507
      f0      :     0.000488  f :     0.004013
      f+1     :     0.000754
      f-1     :     0.000543
      f+2     :     0.000611
      f-2     :     0.000592
      f+3     :     0.000623
      f-3     :     0.000402
  1 H s       :     0.615080  s :     0.615080
      pz      :     0.018092  p :     0.048010
      px      :     0.016442
      py      :     0.013475
  2 H s       :     0.615066  s :     0.615066
      pz      :     0.013632  p :     0.045651
      px      :     0.014433
      py      :     0.017587


                     *******************************
                     * LOEWDIN POPULATION ANALYSIS *
                     *******************************

----------------------
LOEWDIN ATOMIC CHARGES
----------------------
   0 O :   -0.334724
   1 H :    0.159950
   2 H :    0.174774

-------------------------------
LOEWDIN REDUCED ORBITAL CHARGES
-------------------------------
  0 O s       :     3.474377  s :     3.474377
      pz      :     1.564827  p :     4.795906
      px      :     1.715910
      py      :     1.515169
      dz2     :     0.010941  d :     0.059491
      dxz     :     0.016804
      dyz     :     0.007804
      dx2y2   :     0.010795
      dxy     :     0.013146
      f0      :     0.000545  f :     0.004950
      f+1     :     0.001103
      f-1     :     0.000578
      f+2     :     0.000673
      f-2     :     0.000723
      f+3     :     0.000890
      f-3     :     0.000438
  1 H s       :     0.675784  s :     0.675784
      pz      :     0.069795  p :     0.164266
      px      :     0.058536
      py      :     0.035935
  2 H s       :     0.670907  s :     0.670907
      pz      :     0.036528  p :     0.154319
      px      :     0.045494
      py      :     0.072297


                      *****************************
                      * MAYER POPULATION ANALYSIS *
                      *****************************

  NA   - Mulliken gross atomic population
  ZA   - Total nuclear charge
  QA   - Mulliken gross atomic charge
  VA   - Mayer's total valence
  BVA  - Mayer's bonded valence
  FA   - Mayer's free valence

  ATOM       NA         ZA         QA         VA         BVA        FA
  0 O      8.6762     8.0000    -0.6762     2.0841     1.7040     0.3801
  1 H      0.6631     1.0000     0.3369     0.9054     0.8587     0.0467
  2 H      0.6607     1.0000     0.3393     0.9024     0.8541     0.0483

  Mayer bond orders larger than 0.100000
B(  0-O ,  1-H ) :   0.8543 B(  0-O ,  2-H ) :   0.8497 


----------------------------------
MP2 DERIVATIVE INTEGRAL GENERATION
----------------------------------


Input Wavefunction Amplitudes       ... 5h2o.temelso.etal.dset.1h2o.dset-orca.engrad-mp2.def2tzvp.mp2tsaa.tmp
Input Correlated Electron Density   ... 5h2o.temelso.etal.dset.1h2o.dset-orca.engrad-mp2.def2tzvp.pmp2re
Input Energy Weighted Density       ... 5h2o.temelso.etal.dset.1h2o.dset-orca.engrad-mp2.def2tzvp.wmp2.tmp
Input SCF Electron Density          ... 5h2o.temelso.etal.dset.1h2o.dset-orca.engrad-mp2.def2tzvp.scfp

One-Electron Terms    ...
                        ... One-Electron Terms done
Prescreening matrices              ... done

Batch handling in the gradient evaluation:
Memory available                      ... 8000.0 MB
Memory per occupied orbital in Q2     ...    0.1 MB
Memory per occupied orbital in Q3     ...    0.0 MB
Total memory requirement per |i>      ...    0.1 MB
Max. Number of orbitals possible      ... 110341
Number of orbitals treated per batch  ...      4
Number of batches to be done          ...      1
Batch   0: i=    1 ...     4

---------------------------------------
MP2 TOTAL ENERGY:      -76.312508297 Eh
---------------------------------------

The final MP2 gradient
  0:   0.00880383  -0.01840326  -0.00594775
  1:  -0.00072518  -0.00154837  -0.00200573
  2:  -0.00807865   0.01995163   0.00795348

-----------------------------------
NORM OF THE MP2 GRADIENT:  0.031386
-----------------------------------

-------------------------   --------------------
FINAL SINGLE POINT ENERGY       -76.312508296536
-------------------------   --------------------


                            ***************************************
                            *     ORCA property calculations      *
                            ***************************************

                                    ---------------------
                                    Active property flags
                                    ---------------------
   (+) Dipole Moment


------------------------------------------------------------------------------
                       ORCA ELECTRIC PROPERTIES CALCULATION
------------------------------------------------------------------------------

Dipole Moment Calculation                       ... on
Quadrupole Moment Calculation                   ... off
Polarizability Calculation                      ... off
GBWName                                         ... 5h2o.temelso.etal.dset.1h2o.dset-orca.engrad-mp2.def2tzvp.gbw
Electron density file                           ... 5h2o.temelso.etal.dset.1h2o.dset-orca.engrad-mp2.def2tzvp.scfp
The origin for moment calculation is the CENTER OF MASS  = (-0.000014,  0.000009 -0.000007)

-------------
DIPOLE MOMENT
-------------
                                X             Y             Z
Electronic contribution:      0.10598      -0.07432       0.04830
Nuclear contribution   :     -0.76619       0.50491      -0.37556
                        -----------------------------------------
Total Dipole Moment    :     -0.66021       0.43059      -0.32726
                        -----------------------------------------
Magnitude (a.u.)       :      0.85345
Magnitude (Debye)      :      2.16931



--------------------
Rotational spectrum 
--------------------
 
Rotational constants in cm-1:    26.573315    13.990236     9.165050 
Rotational constants in MHz : 796647.942605 419416.733661 274761.272559 

 Dipole components along the rotational axes: 
x,y,z [a.u.] :    -0.035482    -0.852717    -0.000000 
x,y,z [Debye]:    -0.090188    -2.167433    -0.000000 

 

                         *** MP2 UNRELAXED DENSITY ***

------------------------------------------------------------------------------
                       ORCA ELECTRIC PROPERTIES CALCULATION
------------------------------------------------------------------------------

Dipole Moment Calculation                       ... on
Quadrupole Moment Calculation                   ... off
Polarizability Calculation                      ... off
GBWName                                         ... 5h2o.temelso.etal.dset.1h2o.dset-orca.engrad-mp2.def2tzvp.gbw
Electron density file                           ... 5h2o.temelso.etal.dset.1h2o.dset-orca.engrad-mp2.def2tzvp.pmp2ur
The origin for moment calculation is the CENTER OF MASS  = (-0.000014,  0.000009 -0.000007)

-------------
DIPOLE MOMENT
-------------
                                X             Y             Z
Electronic contribution:      0.11353      -0.07958       0.05177
Nuclear contribution   :     -0.76619       0.50491      -0.37556
                        -----------------------------------------
Total Dipole Moment    :     -0.65266       0.42533      -0.32379
                        -----------------------------------------
Magnitude (a.u.)       :      0.84363
Magnitude (Debye)      :      2.14434



--------------------
Rotational spectrum 
--------------------
 
Rotational constants in cm-1:    26.573315    13.990236     9.165050 
Rotational constants in MHz : 796647.942605 419416.733661 274761.272559 

 Dipole components along the rotational axes: 
x,y,z [a.u.] :    -0.034645    -0.842921    -0.000000 
x,y,z [Debye]:    -0.088061    -2.142535    -0.000000 

 

                           *** MP2 RELAXED DENSITY ***

------------------------------------------------------------------------------
                       ORCA ELECTRIC PROPERTIES CALCULATION
------------------------------------------------------------------------------

Dipole Moment Calculation                       ... on
Quadrupole Moment Calculation                   ... off
Polarizability Calculation                      ... off
GBWName                                         ... 5h2o.temelso.etal.dset.1h2o.dset-orca.engrad-mp2.def2tzvp.gbw
Electron density file                           ... 5h2o.temelso.etal.dset.1h2o.dset-orca.engrad-mp2.def2tzvp.pmp2re
The origin for moment calculation is the CENTER OF MASS  = (-0.000014,  0.000009 -0.000007)

-------------
DIPOLE MOMENT
-------------
                                X             Y             Z
Electronic contribution:      0.12172      -0.08458       0.05610
Nuclear contribution   :     -0.76619       0.50491      -0.37556
                        -----------------------------------------
Total Dipole Moment    :     -0.64447       0.42033      -0.31946
                        -----------------------------------------
Magnitude (a.u.)       :      0.83311
Magnitude (Debye)      :      2.11759



--------------------
Rotational spectrum 
--------------------
 
Rotational constants in cm-1:    26.573315    13.990236     9.165050 
Rotational constants in MHz : 796647.942605 419416.733661 274761.272559 

 Dipole components along the rotational axes: 
x,y,z [a.u.] :    -0.034637    -0.832385    -0.000000 
x,y,z [Debye]:    -0.088039    -2.115754    -0.000000 

 

Timings for individual modules:

Sum of individual times         ...        5.633 sec (=   0.094 min)
GTO integral calculation        ...        0.929 sec (=   0.015 min)  16.5 %
SCF iterations                  ...        1.888 sec (=   0.031 min)  33.5 %
MP2 module                      ...        2.816 sec (=   0.047 min)  50.0 %


                 $$$$$$$$$$$$$$$$  JOB NUMBER  2 $$$$$$$$$$$$$$


                     *******************************
                     * Energy+Gradient Calculation *
                     *******************************

---------------------------------
[...]
  VA   - Mayer's total valence
  BVA  - Mayer's bonded valence
  FA   - Mayer's free valence

  ATOM       NA         ZA         QA         VA         BVA        FA
  0 O      8.6906     8.0000    -0.6906     1.7808     1.7808    -0.0000
  1 H      0.6552     1.0000     0.3448     0.8955     0.8955     0.0000
  2 H      0.6542     1.0000     0.3458     0.8943     0.8943    -0.0000

  Mayer bond orders larger than 0.100000
B(  0-O ,  1-H ) :   0.8910 B(  0-O ,  2-H ) :   0.8898 

-------
TIMINGS
-------

Total SCF time: 0 days 0 hours 0 min 1 sec 

Total time                  ....       1.532 sec
Sum of individual times     ....       1.370 sec  ( 89.4%)

Fock matrix formation       ....       1.353 sec  ( 88.3%)
Diagonalization             ....       0.004 sec  (  0.3%)
Density matrix formation    ....       0.001 sec  (  0.1%)
Population analysis         ....       0.008 sec  (  0.5%)
Initial guess               ....       0.001 sec  (  0.1%)
Orbital Transformation      ....       0.000 sec  (  0.0%)
Orbital Orthonormalization  ....       0.000 sec  (  0.0%)
DIIS solution               ....       0.002 sec  (  0.1%)
SOSCF solution              ....       0.001 sec  (  0.1%)


           ************************************************************
           *        Program running with 12 parallel MPI-processes    *
           *              working on a common directory               *
           ************************************************************

------------------------------------------------------------------------------
                                ORCA  MP2 
------------------------------------------------------------------------------

Freezing NCore=2 chemical core electrons
MP2 will be done in the AO integral direct mode
The Q1-step will be done using symmetric double matrices
Dimension of the basis                    ...   43
Memory devoted for MP2                    ... 8000 MB   
Memory needed for all in one shot         ...    1 MB
Number of MOs that can be treated together... 25776      
MP2 density construction                  ... relaxed
The MP2 gradient is requested => amplitudes will be stored on disk
Total number of MOs              ...    4
Number of MOs treated per batch  ...    1 
Number of batches necessary      ...    1 
OPERATORS   0/  0 PASS   0
-----------------------------------------------
 MP2 CORRELATION ENERGY   :     -0.254969393 Eh
-----------------------------------------------


---------------------
MP2 DENSITY FORMATION
---------------------

Completing the external part of the density      ... done
Storing the unrelaxed density                    ... done

Calculating G(D)                                 ... done
Completing the Lagrangian                        ... done
Solving the Z-vector equations                   ... 

------------------------------------------------------------------------------
                           ORCA CP-SCF CALCULATION
------------------------------------------------------------------------------

Input orbitals are from        ... 5h2o.temelso.etal.dset.1h2o.dset-orca.engrad-mp2.def2tzvp_job35.gbw
Input Perturbation             ... 5h2o.temelso.etal.dset.1h2o.dset-orca.engrad-mp2.def2tzvp_job35.pin.tmp
Wavefunction output            ... 5h2o.temelso.etal.dset.1h2o.dset-orca.engrad-mp2.def2tzvp_job35.pout.tmp
Perturbation mode              ... Real perturbation (singlet)
Solver                         ... POPLE
Max. number of iterations      ... 128
Convergence tolerance          ... 1.000e-08
Integral handling              ... Direct
Number of perturbations        ... 1
Number of operators            ... 1
Orbital ranges used for CP-SCF:
 Operator 0:  Orbitals   0...  4  to   5... 42
Variables per vector in CP-SCF ... 190
Number of vectors sought       ... 1
     CP-SCF ITERATION   0: 
     CP-SCF ITERATION   1:      0.000101432275
     CP-SCF ITERATION   2:      0.000001871429
     CP-SCF ITERATION   3:      0.000000049667
     CP-SCF ITERATION   4:      0.000000000636
                                                 ... done
Finalizing the relaxed density                   ... done
Transforming P to the AO basis                   ... done
Storing the relaxed density                      ... done

------------------------------------
ENERGY WEIGHTED DENSITY FINALIZATION
------------------------------------

Gathering the parts of the W-matrix              ...                                                      done
Forming the Z-density                            ... done
Transforming Z to the AO basis                   ... done
Calculating G(Z)                                 ... done
Finalizing the W-matrix                          ...                                                      done
Transforming W to the AO basis and storing       ... done

                *********************************************
                * UNRELAXED MP2 DENSITY POPULATION ANALYSIS *
                *********************************************

------------------------------------------------------------------------------
                           ORCA POPULATION ANALYSIS
------------------------------------------------------------------------------
Input electron density              ... 5h2o.temelso.etal.dset.1h2o.dset-orca.engrad-mp2.def2tzvp_job35.pmp2ur
BaseName (.gbw .S,...)              ... 5h2o.temelso.etal.dset.1h2o.dset-orca.engrad-mp2.def2tzvp_job35

                    ********************************
                    * MULLIKEN POPULATION ANALYSIS *
                    ********************************

-----------------------
MULLIKEN ATOMIC CHARGES
-----------------------
   0 O :   -0.686018
   1 H :    0.342570
   2 H :    0.343448
Sum of atomic charges:   -0.0000000

--------------------------------
MULLIKEN REDUCED ORBITAL CHARGES
--------------------------------
  0 O s       :     3.807765  s :     3.807765
      pz      :     1.899752  p :     4.821467
      px      :     1.544037
      py      :     1.377677
      dz2     :     0.009112  d :     0.052673
      dxz     :     0.009052
      dyz     :     0.008470
      dx2y2   :     0.017414
      dxy     :     0.008626
      f0      :     0.000638  f :     0.004112
      f+1     :     0.000559
      f-1     :     0.000637
      f+2     :     0.000575
      f-2     :     0.000441
      f+3     :     0.000376
      f-3     :     0.000888
  1 H s       :     0.610228  s :     0.610228
      pz      :     0.016100  p :     0.047202
      px      :     0.011775
      py      :     0.019327
  2 H s       :     0.610205  s :     0.610205
      pz      :     0.015788  p :     0.046348
      px      :     0.018370
      py      :     0.012190


                     *******************************
                     * LOEWDIN POPULATION ANALYSIS *
                     *******************************

----------------------
LOEWDIN ATOMIC CHARGES
----------------------
   0 O :   -0.324409
   1 H :    0.159527
   2 H :    0.164882

-------------------------------
LOEWDIN REDUCED ORBITAL CHARGES
-------------------------------
  0 O s       :     3.466185  s :     3.466185
      pz      :     1.853571  p :     4.791945
      px      :     1.550726
      py      :     1.387648
      dz2     :     0.010127  d :     0.061274
      dxz     :     0.008589
      dyz     :     0.008982
      dx2y2   :     0.023423
      dxy     :     0.010153
      f0      :     0.000608  f :     0.005006
      f+1     :     0.000559
      f-1     :     0.000689
      f+2     :     0.000786
      f-2     :     0.000497
      f+3     :     0.000514
      f-3     :     0.001352
  1 H s       :     0.677001  s :     0.677001
      pz      :     0.048174  p :     0.163472
      px      :     0.033323
      py      :     0.081975
  2 H s       :     0.675297  s :     0.675297
      pz      :     0.047007  p :     0.159821
      px      :     0.078689
      py      :     0.034125


                      *****************************
                      * MAYER POPULATION ANALYSIS *
                      *****************************

  NA   - Mulliken gross atomic population
  ZA   - Total nuclear charge
  QA   - Mulliken gross atomic charge
  VA   - Mayer's total valence
  BVA  - Mayer's bonded valence
  FA   - Mayer's free valence

  ATOM       NA         ZA         QA         VA         BVA        FA
  0 O      8.6860     8.0000    -0.6860     2.0821     1.6994     0.3826
  1 H      0.6574     1.0000     0.3426     0.9014     0.8547     0.0467
  2 H      0.6566     1.0000     0.3434     0.9003     0.8530     0.0472

  Mayer bond orders larger than 0.100000
B(  0-O ,  1-H ) :   0.8506 B(  0-O ,  2-H ) :   0.8489 


                *******************************************
                * RELAXED MP2 DENSITY POPULATION ANALYSIS *
                *******************************************

------------------------------------------------------------------------------
                           ORCA POPULATION ANALYSIS
------------------------------------------------------------------------------
Input electron density              ... 5h2o.temelso.etal.dset.1h2o.dset-orca.engrad-mp2.def2tzvp_job35.pmp2re
BaseName (.gbw .S,...)              ... 5h2o.temelso.etal.dset.1h2o.dset-orca.engrad-mp2.def2tzvp_job35

                    ********************************
                    * MULLIKEN POPULATION ANALYSIS *
                    ********************************

-----------------------
MULLIKEN ATOMIC CHARGES
-----------------------
   0 O :   -0.673378
   1 H :    0.336205
   2 H :    0.337173
Sum of atomic charges:    0.0000000

--------------------------------
MULLIKEN REDUCED ORBITAL CHARGES
--------------------------------
  0 O s       :     3.812773  s :     3.812773
      pz      :     1.896231  p :     4.806235
      px      :     1.536977
      py      :     1.373026
      dz2     :     0.008894  d :     0.050335
      dxz     :     0.008977
      dyz     :     0.008241
      dx2y2   :     0.015913
      dxy     :     0.008310
      f0      :     0.000629  f :     0.004036
      f+1     :     0.000554
      f-1     :     0.000630
      f+2     :     0.000563
      f-2     :     0.000437
      f+3     :     0.000371
      f-3     :     0.000851
  1 H s       :     0.615822  s :     0.615822
      pz      :     0.017090  p :     0.047973
      px      :     0.012545
      py      :     0.018338
  2 H s       :     0.615723  s :     0.615723
      pz      :     0.016773  p :     0.047104
      px      :     0.017820
      py      :     0.012511


                     *******************************
                     * LOEWDIN POPULATION ANALYSIS *
                     *******************************

----------------------
LOEWDIN ATOMIC CHARGES
----------------------
   0 O :   -0.327772
   1 H :    0.161185
   2 H :    0.166587

-------------------------------
LOEWDIN REDUCED ORBITAL CHARGES
-------------------------------
  0 O s       :     3.468364  s :     3.468364
      pz      :     1.851462  p :     4.794495
      px      :     1.551471
      py      :     1.391562
      dz2     :     0.010020  d :     0.059890
      dxz     :     0.008597
      dyz     :     0.008867
      dx2y2   :     0.022530
      dxy     :     0.009877
      f0      :     0.000613  f :     0.005022
      f+1     :     0.000563
      f-1     :     0.000695
      f+2     :     0.000785
      f-2     :     0.000496
      f+3     :     0.000508
      f-3     :     0.001361
  1 H s       :     0.675203  s :     0.675203
      pz      :     0.049145  p :     0.163612
      px      :     0.033794
      py      :     0.080673
  2 H s       :     0.673412  s :     0.673412
      pz      :     0.047990  p :     0.160001
      px      :     0.078158
      py      :     0.033853


                      *****************************
                      * MAYER POPULATION ANALYSIS *
                      *****************************

  NA   - Mulliken gross atomic population
  ZA   - Total nuclear charge
  QA   - Mulliken gross atomic charge
  VA   - Mayer's total valence
  BVA  - Mayer's bonded valence
  FA   - Mayer's free valence

  ATOM       NA         ZA         QA         VA         BVA        FA
  0 O      8.6734     8.0000    -0.6734     2.0862     1.7082     0.3780
  1 H      0.6638     1.0000     0.3362     0.9060     0.8592     0.0468
  2 H      0.6628     1.0000     0.3372     0.9048     0.8575     0.0473

  Mayer bond orders larger than 0.100000
B(  0-O ,  1-H ) :   0.8550 B(  0-O ,  2-H ) :   0.8532 


----------------------------------
MP2 DERIVATIVE INTEGRAL GENERATION
----------------------------------


Input Wavefunction Amplitudes       ... 5h2o.temelso.etal.dset.1h2o.dset-orca.engrad-mp2.def2tzvp_job35.mp2tsaa.tmp
Input Correlated Electron Density   ... 5h2o.temelso.etal.dset.1h2o.dset-orca.engrad-mp2.def2tzvp_job35.pmp2re
Input Energy Weighted Density       ... 5h2o.temelso.etal.dset.1h2o.dset-orca.engrad-mp2.def2tzvp_job35.wmp2.tmp
Input SCF Electron Density          ... 5h2o.temelso.etal.dset.1h2o.dset-orca.engrad-mp2.def2tzvp_job35.scfp

One-Electron Terms    ...
                        ... One-Electron Terms done
Prescreening matrices              ... done

Batch handling in the gradient evaluation:
Memory available                      ... 8000.0 MB
Memory per occupied orbital in Q2     ...    0.1 MB
Memory per occupied orbital in Q3     ...    0.0 MB
Total memory requirement per |i>      ...    0.1 MB
Max. Number of orbitals possible      ... 110341
Number of orbitals treated per batch  ...      4
Number of batches to be done          ...      1
Batch   0: i=    1 ...     4

---------------------------------------
MP2 TOTAL ENERGY:      -76.312930100 Eh
---------------------------------------

The final MP2 gradient
  0:   0.00993120   0.00098033  -0.00338227
  1:  -0.00027884   0.00302580   0.00075073
  2:  -0.00965236  -0.00400613   0.00263155

-----------------------------------
NORM OF THE MP2 GRADIENT:  0.015394
-----------------------------------

-------------------------   --------------------
FINAL SINGLE POINT ENERGY       -76.312930100494
-------------------------   --------------------


                            ***************************************
                            *     ORCA property calculations      *
                            ***************************************

                                    ---------------------
                                    Active property flags
                                    ---------------------
   (+) Dipole Moment


------------------------------------------------------------------------------
                       ORCA ELECTRIC PROPERTIES CALCULATION
------------------------------------------------------------------------------

Dipole Moment Calculation                       ... on
Quadrupole Moment Calculation                   ... off
Polarizability Calculation                      ... off
GBWName                                         ... 5h2o.temelso.etal.dset.1h2o.dset-orca.engrad-mp2.def2tzvp_job35.gbw
Electron density file                           ... 5h2o.temelso.etal.dset.1h2o.dset-orca.engrad-mp2.def2tzvp_job35.scfp
The origin for moment calculation is the CENTER OF MASS  = (-0.000014,  0.000009  0.000007)

-------------
DIPOLE MOMENT
-------------
                                X             Y             Z
Electronic contribution:      0.10835      -0.06337      -0.05280
Nuclear contribution   :     -0.78092       0.47411       0.38430
                        -----------------------------------------
Total Dipole Moment    :     -0.67257       0.41074       0.33150
                        -----------------------------------------
Magnitude (a.u.)       :      0.85495
Magnitude (Debye)      :      2.17311



--------------------
Rotational spectrum 
--------------------
 
Rotational constants in cm-1:    26.567265    14.277626     9.286779 
Rotational constants in MHz : 796466.555516 428032.447877 278410.622193 

 Dipole components along the rotational axes: 
x,y,z [a.u.] :    -0.013116     0.854851    -0.000000 
x,y,z [Debye]:    -0.033338     2.172858    -0.000000 

 

                         *** MP2 UNRELAXED DENSITY ***

------------------------------------------------------------------------------
                       ORCA ELECTRIC PROPERTIES CALCULATION
------------------------------------------------------------------------------

Dipole Moment Calculation                       ... on
Quadrupole Moment Calculation                   ... off
Polarizability Calculation                      ... off
GBWName                                         ... 5h2o.temelso.etal.dset.1h2o.dset-orca.engrad-mp2.def2tzvp_job35.gbw
Electron density file                           ... 5h2o.temelso.etal.dset.1h2o.dset-orca.engrad-mp2.def2tzvp_job35.pmp2ur
The origin for moment calculation is the CENTER OF MASS  = (-0.000014,  0.000009  0.000007)

-------------
DIPOLE MOMENT
-------------
                                X             Y             Z
Electronic contribution:      0.11604      -0.06789      -0.05656
Nuclear contribution   :     -0.78092       0.47411       0.38430
                        -----------------------------------------
Total Dipole Moment    :     -0.66488       0.40622       0.32775
                        -----------------------------------------
Magnitude (a.u.)       :      0.84528
Magnitude (Debye)      :      2.14853



--------------------
Rotational spectrum 
--------------------
 
Rotational constants in cm-1:    26.567265    14.277626     9.286779 
Rotational constants in MHz : 796466.555516 428032.447877 278410.622193 

 Dipole components along the rotational axes: 
x,y,z [a.u.] :    -0.012816     0.845184    -0.000000 
x,y,z [Debye]:    -0.032575     2.148287    -0.000000 

 

                           *** MP2 RELAXED DENSITY ***

------------------------------------------------------------------------------
                       ORCA ELECTRIC PROPERTIES CALCULATION
------------------------------------------------------------------------------

Dipole Moment Calculation                       ... on
Quadrupole Moment Calculation                   ... off
Polarizability Calculation                      ... off
GBWName                                         ... 5h2o.temelso.etal.dset.1h2o.dset-orca.engrad-mp2.def2tzvp_job35.gbw
Electron density file                           ... 5h2o.temelso.etal.dset.1h2o.dset-orca.engrad-mp2.def2tzvp_job35.pmp2re
The origin for moment calculation is the CENTER OF MASS  = (-0.000014,  0.000009  0.000007)

-------------
DIPOLE MOMENT
-------------
                                X             Y             Z
Electronic contribution:      0.12420      -0.07305      -0.06062
Nuclear contribution   :     -0.78092       0.47411       0.38430
                        -----------------------------------------
Total Dipole Moment    :     -0.65672       0.40106       0.32368
                        -----------------------------------------
Magnitude (a.u.)       :      0.83481
Magnitude (Debye)      :      2.12191



--------------------
Rotational spectrum 
--------------------
 
Rotational constants in cm-1:    26.567265    14.277626     9.286779 
Rotational constants in MHz : 796466.555516 428032.447877 278410.622193 

 Dipole components along the rotational axes: 
x,y,z [a.u.] :    -0.012804     0.834707     0.000000 
x,y,z [Debye]:    -0.032546     2.121658     0.000000 

 

Timings for individual modules:

Sum of individual times         ...        4.465 sec (=   0.074 min)
GTO integral calculation        ...        0.833 sec (=   0.014 min)  18.6 %
SCF iterations                  ...        2.156 sec (=   0.036 min)  48.3 %
MP2 module                      ...        1.476 sec (=   0.025 min)  33.1 %



                             ****ORCA TERMINATED NORMALLY****
TOTAL RUN TIME: 0 days 0 hours 3 minutes 4 seconds 835 msec
