
                                 *****************
                                 * O   R   C   A *
                                 *****************

           --- An Ab Initio, DFT and Semiempirical electronic structure package ---

                  #######################################################
                  #                        -***-                        #
                  #          Department of theory and spectroscopy      #
                  #               Directorship: Frank Neese             #
                  #        Max Planck Institute fuer Kohlenforschung    #
                  #                Kaiser Wilhelm Platz 1               #
                  #                 D-45470 Muelheim/Ruhr               #
                  #                      Germany                        #
                  #                                                     #
                  #                  All rights reserved                #
                  #                        -***-                        #
                  #######################################################


                         Program Version 4.2.0 -  RELEASE  -


 With contributions from (in alphabetic order):
   Daniel Aravena         : Magnetic Suceptibility
   Michael Atanasov       : Ab Initio Ligand Field Theory (pilot matlab implementation)
   Alexander A. Auer      : GIAO ZORA, VPT2
   Ute Becker             : Parallelization
   Giovanni Bistoni       : ED, misc. LED, open-shell LED, HFLED
   Martin Brehm           : Molecular dynamics
   Dmytro Bykov           : SCF Hessian
   Vijay G. Chilkuri      : MRCI spin determinant printing, contributions to CSF-ICE
   Dipayan Datta          : RHF DLPNO-CCSD density
   Achintya Kumar Dutta   : EOM-CC, STEOM-CC
   Dmitry Ganyushin       : Spin-Orbit,Spin-Spin,Magnetic field MRCI
   Miquel Garcia          : C-PCM Hessian, Gaussian charge scheme
   Yang Guo               : DLPNO-NEVPT2, CIM, IAO-localization
   Andreas Hansen         : Spin unrestricted coupled pair/coupled cluster methods
   Benjamin Helmich-Paris : CASSCF linear response (MC-RPA)
   Lee Huntington         : MR-EOM, pCC
   Robert Izsak           : Overlap fitted RIJCOSX, COSX-SCS-MP3, EOM
   Christian Kollmar      : KDIIS, OOCD, Brueckner-CCSD(T), CCSD density
   Simone Kossmann        : Meta GGA functionals, TD-DFT gradient, OOMP2, MP2 Hessian
   Martin Krupicka        : AUTO-CI
   Lucas Lang             : DCDCAS
   Dagmar Lenk            : GEPOL surface, SMD
   Dimitrios Liakos       : Extrapolation schemes; Compound Job, initial MDCI parallelization
   Dimitrios Manganas     : Further ROCIS development; embedding schemes
   Dimitrios Pantazis     : SARC Basis sets
   Taras Petrenko         : DFT Hessian,TD-DFT gradient, ASA, ECA, R-Raman, ABS, FL, XAS/XES, NRVS
   Peter Pinski           : DLPNO-MP2, DLPNO-MP2 Gradient
   Christoph Reimann      : Effective Core Potentials
   Marius Retegan         : Local ZFS, SOC
   Christoph Riplinger    : Optimizer, TS searches, QM/MM, DLPNO-CCSD(T), (RO)-DLPNO pert. Triples
   Tobias Risthaus        : Range-separated hybrids, TD-DFT gradient, RPA, STAB
   Michael Roemelt        : Original ROCIS implementation
   Masaaki Saitow         : Open-shell DLPNO-CCSD energy and density
   Barbara Sandhoefer     : DKH picture change effects
   Avijit Sen             : IP-ROCIS
   Kantharuban Sivalingam : CASSCF convergence, NEVPT2, FIC-MRCI
   Bernardo de Souza      : ESD, SOC TD-DFT
   Georgi Stoychev        : AutoAux, RI-MP2 NMR
   Willem Van den Heuvel  : Paramagnetic NMR
   Boris Wezisla          : Elementary symmetry handling
   Frank Wennmohs         : Technical directorship


 We gratefully acknowledge several colleagues who have allowed us to
 interface, adapt or use parts of their codes:
   Stefan Grimme, W. Hujo, H. Kruse,             : VdW corrections, initial TS optimization,
                  C. Bannwarth                     DFT functionals, gCP, sTDA/sTD-DF
   Ed Valeev, F. Pavosevic, A. Kumar             : LibInt (2-el integral package), F12 methods
   Garnet Chan, S. Sharma, J. Yang, R. Olivares  : DMRG
   Ulf Ekstrom                                   : XCFun DFT Library
   Mihaly Kallay                                 : mrcc  (arbitrary order and MRCC methods)
   Andreas Klamt, Michael Diedenhofen            : otool_cosmo (COSMO solvation model)
   Jiri Pittner, Ondrej Demel                    : Mk-CCSD
   Frank Weinhold                                : gennbo (NPA and NBO analysis)
   Christopher J. Cramer and Donald G. Truhlar   : smd solvation model
   Lars Goerigk                                  : TD-DFT with DH, B97 family of functionals
   V. Asgeirsson, H. Jonsson                     : NEB implementation
   FAccTs GmbH                                   : IRC, NEB, NEB-TS, Multilevel, MM, QM/MM, CI optimization
   S Lehtola, MJT Oliveira, MAL Marques          : LibXC Library


 Your calculation uses the libint2 library for the computation of 2-el integrals
 For citations please refer to: http://libint.valeyev.net

 Your ORCA version has been built with support for libXC version: 4.2.3
 For citations please refer to: https://tddft.org/programs/libxc/

 This ORCA versions uses:
   CBLAS   interface :  Fast vector & matrix operations
   LAPACKE interface :  Fast linear algebra routines
   SCALAPACK package :  Parallel linear algebra routines


----- Orbital basis set information -----
Your calculation utilizes the basis: aug-cc-pVTZ 
    H, B-Ne : Obtained from the ccRepo (grant-hill.group.shef.ac.uk/ccrepo) Feb. 2017
              R. A. Kendall, T. H. Dunning, Jr., R. J. Harrison, J. Chem. Phys. 96, 6796 (1992)
         He : Obtained from the ccRepo (grant-hill.group.shef.ac.uk/ccrepo) Feb. 2017
              D. E. Woon, T. H. Dunning, Jr., J. Chem. Phys. 100, 2975 (1994)
  Li-Be, Na : Obtained from the ccRepo (grant-hill.group.shef.ac.uk/ccrepo) Feb. 2017
              B. P. Prascher, D. E. Woon, K. A. Peterson, T. H. Dunning, Jr., A. K. Wilson, Theor. Chem. Acc. 128, 69 (2011)
         Mg : Obtained from the Peterson Research Group Website (tyr0.chem.wsu.edu/~kipeters) Feb. 2017
              B. P. Prascher, D. E. Woon, K. A. Peterson, T. H. Dunning, Jr., A. K. Wilson, Theor. Chem. Acc. 128, 69 (2011)
      Al-Ar : Obtained from the ccRepo (grant-hill.group.shef.ac.uk/ccrepo) Feb. 2017
              D. E. Woon, T. H. Dunning, Jr., J. Chem. Phys. 98, 1358 (1993)
      Sc-Zn : Obtained from the ccRepo (grant-hill.group.shef.ac.uk/ccrepo) Feb. 2017
              N. B. Balabanov, K. A. Peterson, J. Chem. Phys. 123, 064107 (2005)
              N. B. Balabanov, K. A. Peterson, J. Chem. Phys. 125, 074110 (2006)
      Ga-Kr : Obtained from the ccRepo (grant-hill.group.shef.ac.uk/ccrepo) Feb. 2017
              A. K. Wilson, D. E. Woon, K. A. Peterson, T. H. Dunning, Jr., J. Chem. Phys. 110, 7667 (1999)
     Ag, Au : Obtained from the Peterson Research Group Website (tyr0.chem.wsu.edu/~kipeters) Feb. 2017
              K. A. Peterson, C. Puzzarini, Theor. Chem. Acc. 114, 283 (2005)

================================================================================
                                        WARNINGS
                       Please study these warnings very carefully!
================================================================================


WARNING: The frozen-core approximation for MP2-gradient calculations is turned on by default.

INFO   : the flag for use of LIBINT has been found!

----- Orbital basis set information -----
Your calculation utilizes the basis: aug-cc-pVTZ 
    H, B-Ne : Obtained from the ccRepo (grant-hill.group.shef.ac.uk/ccrepo) Feb. 2017
              R. A. Kendall, T. H. Dunning, Jr., R. J. Harrison, J. Chem. Phys. 96, 6796 (1992)
         He : Obtained from the ccRepo (grant-hill.group.shef.ac.uk/ccrepo) Feb. 2017
              D. E. Woon, T. H. Dunning, Jr., J. Chem. Phys. 100, 2975 (1994)
  Li-Be, Na : Obtained from the ccRepo (grant-hill.group.shef.ac.uk/ccrepo) Feb. 2017
              B. P. Prascher, D. E. Woon, K. A. Peterson, T. H. Dunning, Jr., A. K. Wilson, Theor. Chem. Acc. 128, 69 (2011)
         Mg : Obtained from the Peterson Research Group Website (tyr0.chem.wsu.edu/~kipeters) Feb. 2017
              B. P. Prascher, D. E. Woon, K. A. Peterson, T. H. Dunning, Jr., A. K. Wilson, Theor. Chem. Acc. 128, 69 (2011)
      Al-Ar : Obtained from the ccRepo (grant-hill.group.shef.ac.uk/ccrepo) Feb. 2017
              D. E. Woon, T. H. Dunning, Jr., J. Chem. Phys. 98, 1358 (1993)
      Sc-Zn : Obtained from the ccRepo (grant-hill.group.shef.ac.uk/ccrepo) Feb. 2017
              N. B. Balabanov, K. A. Peterson, J. Chem. Phys. 123, 064107 (2005)
              N. B. Balabanov, K. A. Peterson, J. Chem. Phys. 125, 074110 (2006)
      Ga-Kr : Obtained from the ccRepo (grant-hill.group.shef.ac.uk/ccrepo) Feb. 2017
              A. K. Wilson, D. E. Woon, K. A. Peterson, T. H. Dunning, Jr., J. Chem. Phys. 110, 7667 (1999)
     Ag, Au : Obtained from the Peterson Research Group Website (tyr0.chem.wsu.edu/~kipeters) Feb. 2017
              K. A. Peterson, C. Puzzarini, Theor. Chem. Acc. 114, 283 (2005)

================================================================================
                                        WARNINGS
                       Please study these warnings very carefully!
================================================================================


WARNING: The frozen-core approximation for MP2-gradient calculations is turned on by default.

INFO   : the flag for use of LIBINT has been found!

----- Orbital basis set information -----
Your calculation utilizes the basis: aug-cc-pVTZ 
    H, B-Ne : Obtained from the ccRepo (grant-hill.group.shef.ac.uk/ccrepo) Feb. 2017
              R. A. Kendall, T. H. Dunning, Jr., R. J. Harrison, J. Chem. Phys. 96, 6796 (1992)
         He : Obtained from the ccRepo (grant-hill.group.shef.ac.uk/ccrepo) Feb. 2017
              D. E. Woon, T. H. Dunning, Jr., J. Chem. Phys. 100, 2975 (1994)
  Li-Be, Na : Obtained from the ccRepo (grant-hill.group.shef.ac.uk/ccrepo) Feb. 2017
              B. P. Prascher, D. E. Woon, K. A. Peterson, T. H. Dunning, Jr., A. K. Wilson, Theor. Chem. Acc. 128, 69 (2011)
         Mg : Obtained from the Peterson Research Group Website (tyr0.chem.wsu.edu/~kipeters) Feb. 2017
              B. P. Prascher, D. E. Woon, K. A. Peterson, T. H. Dunning, Jr., A. K. Wilson, Theor. Chem. Acc. 128, 69 (2011)
      Al-Ar : Obtained from the ccRepo (grant-hill.group.shef.ac.uk/ccrepo) Feb. 2017
              D. E. Woon, T. H. Dunning, Jr., J. Chem. Phys. 98, 1358 (1993)
      Sc-Zn : Obtained from the ccRepo (grant-hill.group.shef.ac.uk/ccrepo) Feb. 2017
              N. B. Balabanov, K. A. Peterson, J. Chem. Phys. 123, 064107 (2005)
              N. B. Balabanov, K. A. Peterson, J. Chem. Phys. 125, 074110 (2006)
      Ga-Kr : Obtained from the ccRepo (grant-hill.group.shef.ac.uk/ccrepo) Feb. 2017
              A. K. Wilson, D. E. Woon, K. A. Peterson, T. H. Dunning, Jr., J. Chem. Phys. 110, 7667 (1999)
     Ag, Au : Obtained from the Peterson Research Group Website (tyr0.chem.wsu.edu/~kipeters) Feb. 2017
              K. A. Peterson, C. Puzzarini, Theor. Chem. Acc. 114, 283 (2005)

================================================================================
                                        WARNINGS
                       Please study these warnings very carefully!
================================================================================


WARNING: The frozen-core approximation for MP2-gradient calculations is turned on by default.

INFO   : the flag for use of LIBINT has been found!

----- Orbital basis set information -----
Your calculation utilizes the basis: aug-cc-pVTZ 
    H, B-Ne : Obtained from the ccRepo (grant-hill.group.shef.ac.uk/ccrepo) Feb. 2017
              R. A. Kendall, T. H. Dunning, Jr., R. J. Harrison, J. Chem. Phys. 96, 6796 (1992)
         He : Obtained from the ccRepo (grant-hill.group.shef.ac.uk/ccrepo) Feb. 2017
              D. E. Woon, T. H. Dunning, Jr., J. Chem. Phys. 100, 2975 (1994)
  Li-Be, Na : Obtained from the ccRepo (grant-hill.group.shef.ac.uk/ccrepo) Feb. 2017
              B. P. Prascher, D. E. Woon, K. A. Peterson, T. H. Dunning, Jr., A. K. Wilson, Theor. Chem. Acc. 128, 69 (2011)
         Mg : Obtained from the Peterson Research Group Website (tyr0.chem.wsu.edu/~kipeters) Feb. 2017
              B. P. Prascher, D. E. Woon, K. A. Peterson, T. H. Dunning, Jr., A. K. Wilson, Theor. Chem. Acc. 128, 69 (2011)
      Al-Ar : Obtained from the ccRepo (grant-hill.group.shef.ac.uk/ccrepo) Feb. 2017
              D. E. Woon, T. H. Dunning, Jr., J. Chem. Phys. 98, 1358 (1993)
      Sc-Zn : Obtained from the ccRepo (grant-hill.group.shef.ac.uk/ccrepo) Feb. 2017
              N. B. Balabanov, K. A. Peterson, J. Chem. Phys. 123, 064107 (2005)
              N. B. Balabanov, K. A. Peterson, J. Chem. Phys. 125, 074110 (2006)
      Ga-Kr : Obtained from the ccRepo (grant-hill.group.shef.ac.uk/ccrepo) Feb. 2017
              A. K. Wilson, D. E. Woon, K. A. Peterson, T. H. Dunning, Jr., J. Chem. Phys. 110, 7667 (1999)
     Ag, Au : Obtained from the Peterson Research Group Website (tyr0.chem.wsu.edu/~kipeters) Feb. 2017
              K. A. Peterson, C. Puzzarini, Theor. Chem. Acc. 114, 283 (2005)

================================================================================
                                        WARNINGS
                       Please study these warnings very carefully!
================================================================================


WARNING: The frozen-core approximation for MP2-gradient calculations is turned on by default.

INFO   : the flag for use of LIBINT has been found!

----- Orbital basis set information -----
Your calculation utilizes the basis: aug-cc-pVTZ 
    H, B-Ne : Obtained from the ccRepo (grant-hill.group.shef.ac.uk/ccrepo) Feb. 2017
              R. A. Kendall, T. H. Dunning, Jr., R. J. Harrison, J. Chem. Phys. 96, 6796 (1992)
         He : Obtained from the ccRepo (grant-hill.group.shef.ac.uk/ccrepo) Feb. 2017
              D. E. Woon, T. H. Dunning, Jr., J. Chem. Phys. 100, 2975 (1994)
  Li-Be, Na : Obtained from the ccRepo (grant-hill.group.shef.ac.uk/ccrepo) Feb. 2017
              B. P. Prascher, D. E. Woon, K. A. Peterson, T. H. Dunning, Jr., A. K. Wilson, Theor. Chem. Acc. 128, 69 (2011)
         Mg : Obtained from the Peterson Research Group Website (tyr0.chem.wsu.edu/~kipeters) Feb. 2017
              B. P. Prascher, D. E. Woon, K. A. Peterson, T. H. Dunning, Jr., A. K. Wilson, Theor. Chem. Acc. 128, 69 (2011)
      Al-Ar : Obtained from the ccRepo (grant-hill.group.shef.ac.uk/ccrepo) Feb. 2017
              D. E. Woon, T. H. Dunning, Jr., J. Chem. Phys. 98, 1358 (1993)
      Sc-Zn : Obtained from the ccRepo (grant-hill.group.shef.ac.uk/ccrepo) Feb. 2017
              N. B. Balabanov, K. A. Peterson, J. Chem. Phys. 123, 064107 (2005)
              N. B. Balabanov, K. A. Peterson, J. Chem. Phys. 125, 074110 (2006)
      Ga-Kr : Obtained from the ccRepo (grant-hill.group.shef.ac.uk/ccrepo) Feb. 2017
              A. K. Wilson, D. E. Woon, K. A. Peterson, T. H. Dunning, Jr., J. Chem. Phys. 110, 7667 (1999)
     Ag, Au : Obtained from the Peterson Research Group Website (tyr0.chem.wsu.edu/~kipeters) Feb. 2017
              K. A. Peterson, C. Puzzarini, Theor. Chem. Acc. 114, 283 (2005)

================================================================================
                                        WARNINGS
                       Please study these warnings very carefully!
================================================================================


WARNING: The frozen-core approximation for MP2-gradient calculations is turned on by default.

INFO   : the flag for use of LIBINT has been found!

----- Orbital basis set information -----
Your calculation utilizes the basis: aug-cc-pVTZ 
    H, B-Ne : Obtained from the ccRepo (grant-hill.group.shef.ac.uk/ccrepo) Feb. 2017
              R. A. Kendall, T. H. Dunning, Jr., R. J. Harrison, J. Chem. Phys. 96, 6796 (1992)
         He : Obtained from the ccRepo (grant-hill.group.shef.ac.uk/ccrepo) Feb. 2017
              D. E. Woon, T. H. Dunning, Jr., J. Chem. Phys. 100, 2975 (1994)
  Li-Be, Na : Obtained from the ccRepo (grant-hill.group.shef.ac.uk/ccrepo) Feb. 2017
              B. P. Prascher, D. E. Woon, K. A. Peterson, T. H. Dunning, Jr., A. K. Wilson, Theor. Chem. Acc. 128, 69 (2011)
         Mg : Obtained from the Peterson Research Group Website (tyr0.chem.wsu.edu/~kipeters) Feb. 2017
              B. P. Prascher, D. E. Woon, K. A. Peterson, T. H. Dunning, Jr., A. K. Wilson, Theor. Chem. Acc. 128, 69 (2011)
      Al-Ar : Obtained from the ccRepo (grant-hill.group.shef.ac.uk/ccrepo) Feb. 2017
              D. E. Woon, T. H. Dunning, Jr., J. Chem. Phys. 98, 1358 (1993)
      Sc-Zn : Obtained from the ccRepo (grant-hill.group.shef.ac.uk/ccrepo) Feb. 2017
              N. B. Balabanov, K. A. Peterson, J. Chem. Phys. 123, 064107 (2005)
              N. B. Balabanov, K. A. Peterson, J. Chem. Phys. 125, 074110 (2006)
      Ga-Kr : Obtained from the ccRepo (grant-hill.group.shef.ac.uk/ccrepo) Feb. 2017
              A. K. Wilson, D. E. Woon, K. A. Peterson, T. H. Dunning, Jr., J. Chem. Phys. 110, 7667 (1999)
     Ag, Au : Obtained from the Peterson Research Group Website (tyr0.chem.wsu.edu/~kipeters) Feb. 2017
              K. A. Peterson, C. Puzzarini, Theor. Chem. Acc. 114, 283 (2005)

================================================================================
                                        WARNINGS
                       Please study these warnings very carefully!
================================================================================


WARNING: The frozen-core approximation for MP2-gradient calculations is turned on by default.

INFO   : the flag for use of LIBINT has been found!

----- Orbital basis set information -----
Your calculation utilizes the basis: aug-cc-pVTZ 
    H, B-Ne : Obtained from the ccRepo (grant-hill.group.shef.ac.uk/ccrepo) Feb. 2017
              R. A. Kendall, T. H. Dunning, Jr., R. J. Harrison, J. Chem. Phys. 96, 6796 (1992)
         He : Obtained from the ccRepo (grant-hill.group.shef.ac.uk/ccrepo) Feb. 2017
              D. E. Woon, T. H. Dunning, Jr., J. Chem. Phys. 100, 2975 (1994)
  Li-Be, Na : Obtained from the ccRepo (grant-hill.group.shef.ac.uk/ccrepo) Feb. 2017
              B. P. Prascher, D. E. Woon, K. A. Peterson, T. H. Dunning, Jr., A. K. Wilson, Theor. Chem. Acc. 128, 69 (2011)
         Mg : Obtained from the Peterson Research Group Website (tyr0.chem.wsu.edu/~kipeters) Feb. 2017
              B. P. Prascher, D. E. Woon, K. A. Peterson, T. H. Dunning, Jr., A. K. Wilson, Theor. Chem. Acc. 128, 69 (2011)
      Al-Ar : Obtained from the ccRepo (grant-hill.group.shef.ac.uk/ccrepo) Feb. 2017
              D. E. Woon, T. H. Dunning, Jr., J. Chem. Phys. 98, 1358 (1993)
      Sc-Zn : Obtained from the ccRepo (grant-hill.group.shef.ac.uk/ccrepo) Feb. 2017
              N. B. Balabanov, K. A. Peterson, J. Chem. Phys. 123, 064107 (2005)
              N. B. Balabanov, K. A. Peterson, J. Chem. Phys. 125, 074110 (2006)
      Ga-Kr : Obtained from the ccRepo (grant-hill.group.shef.ac.uk/ccrepo) Feb. 2017
              A. K. Wilson, D. E. Woon, K. A. Peterson, T. H. Dunning, Jr., J. Chem. Phys. 110, 7667 (1999)
     Ag, Au : Obtained from the Peterson Research Group Website (tyr0.chem.wsu.edu/~kipeters) Feb. 2017
              K. A. Peterson, C. Puzzarini, Theor. Chem. Acc. 114, 283 (2005)

================================================================================
                                        WARNINGS
                       Please study these warnings very carefully!
================================================================================


WARNING: The frozen-core approximation for MP2-gradient calculations is turned on by default.

INFO   : the flag for use of LIBINT has been found!

----- Orbital basis set information -----
Your calculation utilizes the basis: aug-cc-pVTZ 
    H, B-Ne : Obtained from the ccRepo (grant-hill.group.shef.ac.uk/ccrepo) Feb. 2017
              R. A. Kendall, T. H. Dunning, Jr., R. J. Harrison, J. Chem. Phys. 96, 6796 (1992)
         He : Obtained from the ccRepo (grant-hill.group.shef.ac.uk/ccrepo) Feb. 2017
              D. E. Woon, T. H. Dunning, Jr., J. Chem. Phys. 100, 2975 (1994)
  Li-Be, Na : Obtained from the ccRepo (grant-hill.group.shef.ac.uk/ccrepo) Feb. 2017
              B. P. Prascher, D. E. Woon, K. A. Peterson, T. H. Dunning, Jr., A. K. Wilson, Theor. Chem. Acc. 128, 69 (2011)
         Mg : Obtained from the Peterson Research Group Website (tyr0.chem.wsu.edu/~kipeters) Feb. 2017
              B. P. Prascher, D. E. Woon, K. A. Peterson, T. H. Dunning, Jr., A. K. Wilson, Theor. Chem. Acc. 128, 69 (2011)
      Al-Ar : Obtained from the ccRepo (grant-hill.group.shef.ac.uk/ccrepo) Feb. 2017
              D. E. Woon, T. H. Dunning, Jr., J. Chem. Phys. 98, 1358 (1993)
      Sc-Zn : Obtained from the ccRepo (grant-hill.group.shef.ac.uk/ccrepo) Feb. 2017
              N. B. Balabanov, K. A. Peterson, J. Chem. Phys. 123, 064107 (2005)
              N. B. Balabanov, K. A. Peterson, J. Chem. Phys. 125, 074110 (2006)
      Ga-Kr : Obtained from the ccRepo (grant-hill.group.shef.ac.uk/ccrepo) Feb. 2017
              A. K. Wilson, D. E. Woon, K. A. Peterson, T. H. Dunning, Jr., J. Chem. Phys. 110, 7667 (1999)
     Ag, Au : Obtained from the Peterson Research Group Website (tyr0.chem.wsu.edu/~kipeters) Feb. 2017
              K. A. Peterson, C. Puzzarini, Theor. Chem. Acc. 114, 283 (2005)

================================================================================
                                        WARNINGS
                       Please study these warnings very carefully!
================================================================================


WARNING: The frozen-core approximation for MP2-gradient calculations is turned on by default.

INFO   : the flag for use of LIBINT has been found!

----- Orbital basis set information -----
Your calculation utilizes the basis: aug-cc-pVTZ 
    H, B-Ne : Obtained from the ccRepo (grant-hill.group.shef.ac.uk/ccrepo) Feb. 2017
              R. A. Kendall, T. H. Dunning, Jr., R. J. Harrison, J. Chem. Phys. 96, 6796 (1992)
         He : Obtained from the ccRepo (grant-hill.group.shef.ac.uk/ccrepo) Feb. 2017
              D. E. Woon, T. H. Dunning, Jr., J. Chem. Phys. 100, 2975 (1994)
  Li-Be, Na : Obtained from the ccRepo (grant-hill.group.shef.ac.uk/ccrepo) Feb. 2017
              B. P. Prascher, D. E. Woon, K. A. Peterson, T. H. Dunning, Jr., A. K. Wilson, Theor. Chem. Acc. 128, 69 (2011)
         Mg : Obtained from the Peterson Research Group Website (tyr0.chem.wsu.edu/~kipeters) Feb. 2017
              B. P. Prascher, D. E. Woon, K. A. Peterson, T. H. Dunning, Jr., A. K. Wilson, Theor. Chem. Acc. 128, 69 (2011)
      Al-Ar : Obtained from the ccRepo (grant-hill.group.shef.ac.uk/ccrepo) Feb. 2017
              D. E. Woon, T. H. Dunning, Jr., J. Chem. Phys. 98, 1358 (1993)
      Sc-Zn : Obtained from the ccRepo (grant-hill.group.shef.ac.uk/ccrepo) Feb. 2017
              N. B. Balabanov, K. A. Peterson, J. Chem. Phys. 123, 064107 (2005)
              N. B. Balabanov, K. A. Peterson, J. Chem. Phys. 125, 074110 (2006)
      Ga-Kr : Obtained from the ccRepo (grant-hill.group.shef.ac.uk/ccrepo) Feb. 2017
              A. K. Wilson, D. E. Woon, K. A. Peterson, T. H. Dunning, Jr., J. Chem. Phys. 110, 7667 (1999)
     Ag, Au : Obtained from the Peterson Research Group Website (tyr0.chem.wsu.edu/~kipeters) Feb. 2017
              K. A. Peterson, C. Puzzarini, Theor. Chem. Acc. 114, 283 (2005)

================================================================================
                                        WARNINGS
                       Please study these warnings very carefully!
================================================================================


WARNING: The frozen-core approximation for MP2-gradient calculations is turned on by default.

INFO   : the flag for use of LIBINT has been found!

----- Orbital basis set information -----
Your calculation utilizes the basis: aug-cc-pVTZ 
    H, B-Ne : Obtained from the ccRepo (grant-hill.group.shef.ac.uk/ccrepo) Feb. 2017
              R. A. Kendall, T. H. Dunning, Jr., R. J. Harrison, J. Chem. Phys. 96, 6796 (1992)
         He : Obtained from the ccRepo (grant-hill.group.shef.ac.uk/ccrepo) Feb. 2017
              D. E. Woon, T. H. Dunning, Jr., J. Chem. Phys. 100, 2975 (1994)
  Li-Be, Na : Obtained from the ccRepo (grant-hill.group.shef.ac.uk/ccrepo) Feb. 2017
              B. P. Prascher, D. E. Woon, K. A. Peterson, T. H. Dunning, Jr., A. K. Wilson, Theor. Chem. Acc. 128, 69 (2011)
         Mg : Obtained from the Peterson Research Group Website (tyr0.chem.wsu.edu/~kipeters) Feb. 2017
              B. P. Prascher, D. E. Woon, K. A. Peterson, T. H. Dunning, Jr., A. K. Wilson, Theor. Chem. Acc. 128, 69 (2011)
      Al-Ar : Obtained from the ccRepo (grant-hill.group.shef.ac.uk/ccrepo) Feb. 2017
              D. E. Woon, T. H. Dunning, Jr., J. Chem. Phys. 98, 1358 (1993)
      Sc-Zn : Obtained from the ccRepo (grant-hill.group.shef.ac.uk/ccrepo) Feb. 2017
              N. B. Balabanov, K. A. Peterson, J. Chem. Phys. 123, 064107 (2005)
              N. B. Balabanov, K. A. Peterson, J. Chem. Phys. 125, 074110 (2006)
      Ga-Kr : Obtained from the ccRepo (grant-hill.group.shef.ac.uk/ccrepo) Feb. 2017
              A. K. Wilson, D. E. Woon, K. A. Peterson, T. H. Dunning, Jr., J. Chem. Phys. 110, 7667 (1999)
     Ag, Au : Obtained from the Peterson Research Group Website (tyr0.chem.wsu.edu/~kipeters) Feb. 2017
              K. A. Peterson, C. Puzzarini, Theor. Chem. Acc. 114, 283 (2005)

================================================================================
                                        WARNINGS
                       Please study these warnings very carefully!
================================================================================


WARNING: The frozen-core approximation for MP2-gradient calculations is turned on by default.

INFO   : the flag for use of LIBINT has been found!

----- Orbital basis set information -----
Your calculation utilizes the basis: aug-cc-pVTZ 
    H, B-Ne : Obtained from the ccRepo (grant-hill.group.shef.ac.uk/ccrepo) Feb. 2017
              R. A. Kendall, T. H. Dunning, Jr., R. J. Harrison, J. Chem. Phys. 96, 6796 (1992)
         He : Obtained from the ccRepo (grant-hill.group.shef.ac.uk/ccrepo) Feb. 2017
              D. E. Woon, T. H. Dunning, Jr., J. Chem. Phys. 100, 2975 (1994)
  Li-Be, Na : Obtained from the ccRepo (grant-hill.group.shef.ac.uk/ccrepo) Feb. 2017
              B. P. Prascher, D. E. Woon, K. A. Peterson, T. H. Dunning, Jr., A. K. Wilson, Theor. Chem. Acc. 128, 69 (2011)
         Mg : Obtained from the Peterson Research Group Website (tyr0.chem.wsu.edu/~kipeters) Feb. 2017
              B. P. Prascher, D. E. Woon, K. A. Peterson, T. H. Dunning, Jr., A. K. Wilson, Theor. Chem. Acc. 128, 69 (2011)
      Al-Ar : Obtained from the ccRepo (grant-hill.group.shef.ac.uk/ccrepo) Feb. 2017
              D. E. Woon, T. H. Dunning, Jr., J. Chem. Phys. 98, 1358 (1993)
      Sc-Zn : Obtained from the ccRepo (grant-hill.group.shef.ac.uk/ccrepo) Feb. 2017
              N. B. Balabanov, K. A. Peterson, J. Chem. Phys. 123, 064107 (2005)
              N. B. Balabanov, K. A. Peterson, J. Chem. Phys. 125, 074110 (2006)
      Ga-Kr : Obtained from the ccRepo (grant-hill.group.shef.ac.uk/ccrepo) Feb. 2017
              A. K. Wilson, D. E. Woon, K. A. Peterson, T. H. Dunning, Jr., J. Chem. Phys. 110, 7667 (1999)
     Ag, Au : Obtained from the Peterson Research Group Website (tyr0.chem.wsu.edu/~kipeters) Feb. 2017
              K. A. Peterson, C. Puzzarini, Theor. Chem. Acc. 114, 283 (2005)

================================================================================
                                        WARNINGS
                       Please study these warnings very carefully!
================================================================================


WARNING: The frozen-core approximation for MP2-gradient calculations is turned on by default.

INFO   : the flag for use of LIBINT has been found!

----- Orbital basis set information -----
Your calculation utilizes the basis: aug-cc-pVTZ 
    H, B-Ne : Obtained from the ccRepo (grant-hill.group.shef.ac.uk/ccrepo) Feb. 2017
              R. A. Kendall, T. H. Dunning, Jr., R. J. Harrison, J. Chem. Phys. 96, 6796 (1992)
         He : Obtained from the ccRepo (grant-hill.group.shef.ac.uk/ccrepo) Feb. 2017
              D. E. Woon, T. H. Dunning, Jr., J. Chem. Phys. 100, 2975 (1994)
  Li-Be, Na : Obtained from the ccRepo (grant-hill.group.shef.ac.uk/ccrepo) Feb. 2017
              B. P. Prascher, D. E. Woon, K. A. Peterson, T. H. Dunning, Jr., A. K. Wilson, Theor. Chem. Acc. 128, 69 (2011)
         Mg : Obtained from the Peterson Research Group Website (tyr0.chem.wsu.edu/~kipeters) Feb. 2017
              B. P. Prascher, D. E. Woon, K. A. Peterson, T. H. Dunning, Jr., A. K. Wilson, Theor. Chem. Acc. 128, 69 (2011)
      Al-Ar : Obtained from the ccRepo (grant-hill.group.shef.ac.uk/ccrepo) Feb. 2017
              D. E. Woon, T. H. Dunning, Jr., J. Chem. Phys. 98, 1358 (1993)
      Sc-Zn : Obtained from the ccRepo (grant-hill.group.shef.ac.uk/ccrepo) Feb. 2017
              N. B. Balabanov, K. A. Peterson, J. Chem. Phys. 123, 064107 (2005)
              N. B. Balabanov, K. A. Peterson, J. Chem. Phys. 125, 074110 (2006)
      Ga-Kr : Obtained from the ccRepo (grant-hill.group.shef.ac.uk/ccrepo) Feb. 2017
              A. K. Wilson, D. E. Woon, K. A. Peterson, T. H. Dunning, Jr., J. Chem. Phys. 110, 7667 (1999)
     Ag, Au : Obtained from the Peterson Research Group Website (tyr0.chem.wsu.edu/~kipeters) Feb. 2017
              K. A. Peterson, C. Puzzarini, Theor. Chem. Acc. 114, 283 (2005)

================================================================================
                                        WARNINGS
                       Please study these warnings very carefully!
================================================================================


WARNING: The frozen-core approximation for MP2-gradient calculations is turned on by default.

INFO   : the flag for use of LIBINT has been found!

----- Orbital basis set information -----
Your calculation utilizes the basis: aug-cc-pVTZ 
    H, B-Ne : Obtained from the ccRepo (grant-hill.group.shef.ac.uk/ccrepo) Feb. 2017
              R. A. Kendall, T. H. Dunning, Jr., R. J. Harrison, J. Chem. Phys. 96, 6796 (1992)
         He : Obtained from the ccRepo (grant-hill.group.shef.ac.uk/ccrepo) Feb. 2017
              D. E. Woon, T. H. Dunning, Jr., J. Chem. Phys. 100, 2975 (1994)
  Li-Be, Na : Obtained from the ccRepo (grant-hill.group.shef.ac.uk/ccrepo) Feb. 2017
              B. P. Prascher, D. E. Woon, K. A. Peterson, T. H. Dunning, Jr., A. K. Wilson, Theor. Chem. Acc. 128, 69 (2011)
         Mg : Obtained from the Peterson Research Group Website (tyr0.chem.wsu.edu/~kipeters) Feb. 2017
              B. P. Prascher, D. E. Woon, K. A. Peterson, T. H. Dunning, Jr., A. K. Wilson, Theor. Chem. Acc. 128, 69 (2011)
      Al-Ar : Obtained from the ccRepo (grant-hill.group.shef.ac.uk/ccrepo) Feb. 2017
              D. E. Woon, T. H. Dunning, Jr., J. Chem. Phys. 98, 1358 (1993)
      Sc-Zn : Obtained from the ccRepo (grant-hill.group.shef.ac.uk/ccrepo) Feb. 2017
              N. B. Balabanov, K. A. Peterson, J. Chem. Phys. 123, 064107 (2005)
              N. B. Balabanov, K. A. Peterson, J. Chem. Phys. 125, 074110 (2006)
      Ga-Kr : Obtained from the ccRepo (grant-hill.group.shef.ac.uk/ccrepo) Feb. 2017
              A. K. Wilson, D. E. Woon, K. A. Peterson, T. H. Dunning, Jr., J. Chem. Phys. 110, 7667 (1999)
     Ag, Au : Obtained from the Peterson Research Group Website (tyr0.chem.wsu.edu/~kipeters) Feb. 2017
              K. A. Peterson, C. Puzzarini, Theor. Chem. Acc. 114, 283 (2005)

================================================================================
                                        WARNINGS
                       Please study these warnings very carefully!
================================================================================


WARNING: The frozen-core approximation for MP2-gradient calculations is turned on by default.

INFO   : the flag for use of LIBINT has been found!

----- Orbital basis set information -----
Your calculation utilizes the basis: aug-cc-pVTZ 
    H, B-Ne : Obtained from the ccRepo (grant-hill.group.shef.ac.uk/ccrepo) Feb. 2017
              R. A. Kendall, T. H. Dunning, Jr., R. J. Harrison, J. Chem. Phys. 96, 6796 (1992)
         He : Obtained from the ccRepo (grant-hill.group.shef.ac.uk/ccrepo) Feb. 2017
              D. E. Woon, T. H. Dunning, Jr., J. Chem. Phys. 100, 2975 (1994)
  Li-Be, Na : Obtained from the ccRepo (grant-hill.group.shef.ac.uk/ccrepo) Feb. 2017
              B. P. Prascher, D. E. Woon, K. A. Peterson, T. H. Dunning, Jr., A. K. Wilson, Theor. Chem. Acc. 128, 69 (2011)
         Mg : Obtained from the Peterson Research Group Website (tyr0.chem.wsu.edu/~kipeters) Feb. 2017
              B. P. Prascher, D. E. Woon, K. A. Peterson, T. H. Dunning, Jr., A. K. Wilson, Theor. Chem. Acc. 128, 69 (2011)
      Al-Ar : Obtained from the ccRepo (grant-hill.group.shef.ac.uk/ccrepo) Feb. 2017
              D. E. Woon, T. H. Dunning, Jr., J. Chem. Phys. 98, 1358 (1993)
      Sc-Zn : Obtained from the ccRepo (grant-hill.group.shef.ac.uk/ccrepo) Feb. 2017
              N. B. Balabanov, K. A. Peterson, J. Chem. Phys. 123, 064107 (2005)
              N. B. Balabanov, K. A. Peterson, J. Chem. Phys. 125, 074110 (2006)
      Ga-Kr : Obtained from the ccRepo (grant-hill.group.shef.ac.uk/ccrepo) Feb. 2017
              A. K. Wilson, D. E. Woon, K. A. Peterson, T. H. Dunning, Jr., J. Chem. Phys. 110, 7667 (1999)
     Ag, Au : Obtained from the Peterson Research Group Website (tyr0.chem.wsu.edu/~kipeters) Feb. 2017
              K. A. Peterson, C. Puzzarini, Theor. Chem. Acc. 114, 283 (2005)

================================================================================
                                        WARNINGS
                       Please study these warnings very carefully!
================================================================================


WARNING: The frozen-core approximation for MP2-gradient calculations is turned on by default.

INFO   : the flag for use of LIBINT has been found!

----- Orbital basis set information -----
Your calculation utilizes the basis: aug-cc-pVTZ 
    H, B-Ne : Obtained from the ccRepo (grant-hill.group.shef.ac.uk/ccrepo) Feb. 2017
              R. A. Kendall, T. H. Dunning, Jr., R. J. Harrison, J. Chem. Phys. 96, 6796 (1992)
         He : Obtained from the ccRepo (grant-hill.group.shef.ac.uk/ccrepo) Feb. 2017
              D. E. Woon, T. H. Dunning, Jr., J. Chem. Phys. 100, 2975 (1994)
  Li-Be, Na : Obtained from the ccRepo (grant-hill.group.shef.ac.uk/ccrepo) Feb. 2017
              B. P. Prascher, D. E. Woon, K. A. Peterson, T. H. Dunning, Jr., A. K. Wilson, Theor. Chem. Acc. 128, 69 (2011)
         Mg : Obtained from the Peterson Research Group Website (tyr0.chem.wsu.edu/~kipeters) Feb. 2017
              B. P. Prascher, D. E. Woon, K. A. Peterson, T. H. Dunning, Jr., A. K. Wilson, Theor. Chem. Acc. 128, 69 (2011)
      Al-Ar : Obtained from the ccRepo (grant-hill.group.shef.ac.uk/ccrepo) Feb. 2017
              D. E. Woon, T. H. Dunning, Jr., J. Chem. Phys. 98, 1358 (1993)
      Sc-Zn : Obtained from the ccRepo (grant-hill.group.shef.ac.uk/ccrepo) Feb. 2017
              N. B. Balabanov, K. A. Peterson, J. Chem. Phys. 123, 064107 (2005)
              N. B. Balabanov, K. A. Peterson, J. Chem. Phys. 125, 074110 (2006)
      Ga-Kr : Obtained from the ccRepo (grant-hill.group.shef.ac.uk/ccrepo) Feb. 2017
              A. K. Wilson, D. E. Woon, K. A. Peterson, T. H. Dunning, Jr., J. Chem. Phys. 110, 7667 (1999)
     Ag, Au : Obtained from the Peterson Research Group Website (tyr0.chem.wsu.edu/~kipeters) Feb. 2017
              K. A. Peterson, C. Puzzarini, Theor. Chem. Acc. 114, 283 (2005)

================================================================================
                                        WARNINGS
                       Please study these warnings very carefully!
================================================================================


WARNING: The frozen-core approximation for MP2-gradient calculations is turned on by default.

INFO   : the flag for use of LIBINT has been found!

----- Orbital basis set information -----
Your calculation utilizes the basis: aug-cc-pVTZ 
    H, B-Ne : Obtained from the ccRepo (grant-hill.group.shef.ac.uk/ccrepo) Feb. 2017
              R. A. Kendall, T. H. Dunning, Jr., R. J. Harrison, J. Chem. Phys. 96, 6796 (1992)
         He : Obtained from the ccRepo (grant-hill.group.shef.ac.uk/ccrepo) Feb. 2017
              D. E. Woon, T. H. Dunning, Jr., J. Chem. Phys. 100, 2975 (1994)
  Li-Be, Na : Obtained from the ccRepo (grant-hill.group.shef.ac.uk/ccrepo) Feb. 2017
              B. P. Prascher, D. E. Woon, K. A. Peterson, T. H. Dunning, Jr., A. K. Wilson, Theor. Chem. Acc. 128, 69 (2011)
         Mg : Obtained from the Peterson Research Group Website (tyr0.chem.wsu.edu/~kipeters) Feb. 2017
              B. P. Prascher, D. E. Woon, K. A. Peterson, T. H. Dunning, Jr., A. K. Wilson, Theor. Chem. Acc. 128, 69 (2011)
      Al-Ar : Obtained from the ccRepo (grant-hill.group.shef.ac.uk/ccrepo) Feb. 2017
              D. E. Woon, T. H. Dunning, Jr., J. Chem. Phys. 98, 1358 (1993)
      Sc-Zn : Obtained from the ccRepo (grant-hill.group.shef.ac.uk/ccrepo) Feb. 2017
              N. B. Balabanov, K. A. Peterson, J. Chem. Phys. 123, 064107 (2005)
              N. B. Balabanov, K. A. Peterson, J. Chem. Phys. 125, 074110 (2006)
      Ga-Kr : Obtained from the ccRepo (grant-hill.group.shef.ac.uk/ccrepo) Feb. 2017
              A. K. Wilson, D. E. Woon, K. A. Peterson, T. H. Dunning, Jr., J. Chem. Phys. 110, 7667 (1999)
     Ag, Au : Obtained from the Peterson Research Group Website (tyr0.chem.wsu.edu/~kipeters) Feb. 2017
              K. A. Peterson, C. Puzzarini, Theor. Chem. Acc. 114, 283 (2005)

================================================================================
                                        WARNINGS
                       Please study these warnings very carefully!
================================================================================


WARNING: The frozen-core approximation for MP2-gradient calculations is turned on by default.

INFO   : the flag for use of LIBINT has been found!

----- Orbital basis set information -----
Your calculation utilizes the basis: aug-cc-pVTZ 
    H, B-Ne : Obtained from the ccRepo (grant-hill.group.shef.ac.uk/ccrepo) Feb. 2017
              R. A. Kendall, T. H. Dunning, Jr., R. J. Harrison, J. Chem. Phys. 96, 6796 (1992)
         He : Obtained from the ccRepo (grant-hill.group.shef.ac.uk/ccrepo) Feb. 2017
              D. E. Woon, T. H. Dunning, Jr., J. Chem. Phys. 100, 2975 (1994)
  Li-Be, Na : Obtained from the ccRepo (grant-hill.group.shef.ac.uk/ccrepo) Feb. 2017
              B. P. Prascher, D. E. Woon, K. A. Peterson, T. H. Dunning, Jr., A. K. Wilson, Theor. Chem. Acc. 128, 69 (2011)
         Mg : Obtained from the Peterson Research Group Website (tyr0.chem.wsu.edu/~kipeters) Feb. 2017
              B. P. Prascher, D. E. Woon, K. A. Peterson, T. H. Dunning, Jr., A. K. Wilson, Theor. Chem. Acc. 128, 69 (2011)
      Al-Ar : Obtained from the ccRepo (grant-hill.group.shef.ac.uk/ccrepo) Feb. 2017
              D. E. Woon, T. H. Dunning, Jr., J. Chem. Phys. 98, 1358 (1993)
      Sc-Zn : Obtained from the ccRepo (grant-hill.group.shef.ac.uk/ccrepo) Feb. 2017
              N. B. Balabanov, K. A. Peterson, J. Chem. Phys. 123, 064107 (2005)
              N. B. Balabanov, K. A. Peterson, J. Chem. Phys. 125, 074110 (2006)
      Ga-Kr : Obtained from the ccRepo (grant-hill.group.shef.ac.uk/ccrepo) Feb. 2017
              A. K. Wilson, D. E. Woon, K. A. Peterson, T. H. Dunning, Jr., J. Chem. Phys. 110, 7667 (1999)
     Ag, Au : Obtained from the Peterson Research Group Website (tyr0.chem.wsu.edu/~kipeters) Feb. 2017
              K. A. Peterson, C. Puzzarini, Theor. Chem. Acc. 114, 283 (2005)

================================================================================
                                        WARNINGS
                       Please study these warnings very carefully!
================================================================================


WARNING: The frozen-core approximation for MP2-gradient calculations is turned on by default.

INFO   : the flag for use of LIBINT has been found!

----- Orbital basis set information -----
Your calculation utilizes the basis: aug-cc-pVTZ 
    H, B-Ne : Obtained from the ccRepo (grant-hill.group.shef.ac.uk/ccrepo) Feb. 2017
              R. A. Kendall, T. H. Dunning, Jr., R. J. Harrison, J. Chem. Phys. 96, 6796 (1992)
         He : Obtained from the ccRepo (grant-hill.group.shef.ac.uk/ccrepo) Feb. 2017
              D. E. Woon, T. H. Dunning, Jr., J. Chem. Phys. 100, 2975 (1994)
  Li-Be, Na : Obtained from the ccRepo (grant-hill.group.shef.ac.uk/ccrepo) Feb. 2017
              B. P. Prascher, D. E. Woon, K. A. Peterson, T. H. Dunning, Jr., A. K. Wilson, Theor. Chem. Acc. 128, 69 (2011)
         Mg : Obtained from the Peterson Research Group Website (tyr0.chem.wsu.edu/~kipeters) Feb. 2017
              B. P. Prascher, D. E. Woon, K. A. Peterson, T. H. Dunning, Jr., A. K. Wilson, Theor. Chem. Acc. 128, 69 (2011)
      Al-Ar : Obtained from the ccRepo (grant-hill.group.shef.ac.uk/ccrepo) Feb. 2017
              D. E. Woon, T. H. Dunning, Jr., J. Chem. Phys. 98, 1358 (1993)
      Sc-Zn : Obtained from the ccRepo (grant-hill.group.shef.ac.uk/ccrepo) Feb. 2017
              N. B. Balabanov, K. A. Peterson, J. Chem. Phys. 123, 064107 (2005)
              N. B. Balabanov, K. A. Peterson, J. Chem. Phys. 125, 074110 (2006)
      Ga-Kr : Obtained from the ccRepo (grant-hill.group.shef.ac.uk/ccrepo) Feb. 2017
              A. K. Wilson, D. E. Woon, K. A. Peterson, T. H. Dunning, Jr., J. Chem. Phys. 110, 7667 (1999)
     Ag, Au : Obtained from the Peterson Research Group Website (tyr0.chem.wsu.edu/~kipeters) Feb. 2017
              K. A. Peterson, C. Puzzarini, Theor. Chem. Acc. 114, 283 (2005)

================================================================================
                                        WARNINGS
                       Please study these warnings very carefully!
================================================================================


WARNING: The frozen-core approximation for MP2-gradient calculations is turned on by default.

INFO   : the flag for use of LIBINT has been found!

----- Orbital basis set information -----
Your calculation utilizes the basis: aug-cc-pVTZ 
    H, B-Ne : Obtained from the ccRepo (grant-hill.group.shef.ac.uk/ccrepo) Feb. 2017
              R. A. Kendall, T. H. Dunning, Jr., R. J. Harrison, J. Chem. Phys. 96, 6796 (1992)
         He : Obtained from the ccRepo (grant-hill.group.shef.ac.uk/ccrepo) Feb. 2017
              D. E. Woon, T. H. Dunning, Jr., J. Chem. Phys. 100, 2975 (1994)
  Li-Be, Na : Obtained from the ccRepo (grant-hill.group.shef.ac.uk/ccrepo) Feb. 2017
              B. P. Prascher, D. E. Woon, K. A. Peterson, T. H. Dunning, Jr., A. K. Wilson, Theor. Chem. Acc. 128, 69 (2011)
         Mg : Obtained from the Peterson Research Group Website (tyr0.chem.wsu.edu/~kipeters) Feb. 2017
              B. P. Prascher, D. E. Woon, K. A. Peterson, T. H. Dunning, Jr., A. K. Wilson, Theor. Chem. Acc. 128, 69 (2011)
      Al-Ar : Obtained from the ccRepo (grant-hill.group.shef.ac.uk/ccrepo) Feb. 2017
              D. E. Woon, T. H. Dunning, Jr., J. Chem. Phys. 98, 1358 (1993)
      Sc-Zn : Obtained from the ccRepo (grant-hill.group.shef.ac.uk/ccrepo) Feb. 2017
              N. B. Balabanov, K. A. Peterson, J. Chem. Phys. 123, 064107 (2005)
              N. B. Balabanov, K. A. Peterson, J. Chem. Phys. 125, 074110 (2006)
      Ga-Kr : Obtained from the ccRepo (grant-hill.group.shef.ac.uk/ccrepo) Feb. 2017
              A. K. Wilson, D. E. Woon, K. A. Peterson, T. H. Dunning, Jr., J. Chem. Phys. 110, 7667 (1999)
     Ag, Au : Obtained from the Peterson Research Group Website (tyr0.chem.wsu.edu/~kipeters) Feb. 2017
              K. A. Peterson, C. Puzzarini, Theor. Chem. Acc. 114, 283 (2005)

================================================================================
                                        WARNINGS
                       Please study these warnings very carefully!
================================================================================


WARNING: The frozen-core approximation for MP2-gradient calculations is turned on by default.

INFO   : the flag for use of LIBINT has been found!

----- Orbital basis set information -----
Your calculation utilizes the basis: aug-cc-pVTZ 
    H, B-Ne : Obtained from the ccRepo (grant-hill.group.shef.ac.uk/ccrepo) Feb. 2017
              R. A. Kendall, T. H. Dunning, Jr., R. J. Harrison, J. Chem. Phys. 96, 6796 (1992)
         He : Obtained from the ccRepo (grant-hill.group.shef.ac.uk/ccrepo) Feb. 2017
              D. E. Woon, T. H. Dunning, Jr., J. Chem. Phys. 100, 2975 (1994)
  Li-Be, Na : Obtained from the ccRepo (grant-hill.group.shef.ac.uk/ccrepo) Feb. 2017
              B. P. Prascher, D. E. Woon, K. A. Peterson, T. H. Dunning, Jr., A. K. Wilson, Theor. Chem. Acc. 128, 69 (2011)
         Mg : Obtained from the Peterson Research Group Website (tyr0.chem.wsu.edu/~kipeters) Feb. 2017
              B. P. Prascher, D. E. Woon, K. A. Peterson, T. H. Dunning, Jr., A. K. Wilson, Theor. Chem. Acc. 128, 69 (2011)
      Al-Ar : Obtained from the ccRepo (grant-hill.group.shef.ac.uk/ccrepo) Feb. 2017
              D. E. Woon, T. H. Dunning, Jr., J. Chem. Phys. 98, 1358 (1993)
      Sc-Zn : Obtained from the ccRepo (grant-hill.group.shef.ac.uk/ccrepo) Feb. 2017
              N. B. Balabanov, K. A. Peterson, J. Chem. Phys. 123, 064107 (2005)
              N. B. Balabanov, K. A. Peterson, J. Chem. Phys. 125, 074110 (2006)
      Ga-Kr : Obtained from the ccRepo (grant-hill.group.shef.ac.uk/ccrepo) Feb. 2017
              A. K. Wilson, D. E. Woon, K. A. Peterson, T. H. Dunning, Jr., J. Chem. Phys. 110, 7667 (1999)
     Ag, Au : Obtained from the Peterson Research Group Website (tyr0.chem.wsu.edu/~kipeters) Feb. 2017
              K. A. Peterson, C. Puzzarini, Theor. Chem. Acc. 114, 283 (2005)

================================================================================
                                        WARNINGS
                       Please study these warnings very carefully!
================================================================================


WARNING: The frozen-core approximation for MP2-gradient calculations is turned on by default.

INFO   : the flag for use of LIBINT has been found!

================================================================================
                                       INPUT FILE
================================================================================
NAME = 5h2o.temelso.etal.dset.3h2o-orca.engrad-mp2.augccpvtz-50.to.69.inp
|  1> # 5h2o.temelso.etal.dset.3h2o-orca.engrad-mp2.augccpvtz-50.to.69
|  2> ! MP2 aug-cc-pVTZ EnGrad TightSCF FrozenCore
|  3> 
|  4> %pal
|  5>     nprocs 12
|  6> end
|  7> 
|  8> %maxcore 8000
|  9> 
| 10> %scf
| 11>     ConvForced true
| 12> end
| 13> 
| 14> *xyz 0 1
| 15> O   1.903453508  -0.704017183  -0.564220808
| 16> H   0.935953508  -0.873517183  -0.553020808
| 17> H   2.107253508  -0.549417183  -1.495320808
| 18> O  -0.872646492  -0.923817183  -0.371120808
| 19> H  -1.091446492  -0.065117183   0.046479192
| 20> H  -1.183446492  -1.586817183   0.258179192
| 21> O  -0.985446492   1.606882817   0.868979192
| 22> H  -1.465346492   1.835882817   1.674479192
| 23> H  -0.023046492   1.571582817   1.122679192
| 24> *
| 25> 
| 26> 
| 27> $new_job
| 28> 
| 29> # 5h2o.temelso.etal.dset.3h2o-orca.engrad-mp2.augccpvtz-50.to.69
| 30> ! MP2 aug-cc-pVTZ EnGrad TightSCF FrozenCore
| 31> 
| 32> %pal
| 33>     nprocs 12
| 34> end
| 35> 
| 36> %maxcore 8000
| 37> 
| 38> %scf
| 39>     ConvForced true
| 40> end
| 41> 
| 42> *xyz 0 1
| 43> O   1.018109100  -0.702190000  -0.565509321
| 44> H   0.050609100  -0.871690000  -0.554309321
| 45> H   1.221909100  -0.547590000  -1.496609321
| 46> O  -1.757990900  -0.921990000  -0.372409321
| 47> H  -1.976790900  -0.063290000   0.045190679
| 48> H  -2.068790900  -1.584990000   0.256890679
| 49> O   0.799609100   1.621310000   0.996890679
| 50> H   0.784009100   2.307610000   0.305790679
| 51> H   1.040909100   0.805510000   0.506890679
| 52> *
| 53> 
| 54> 
| 55> $new_job
| 56> 
| 57> # 5h2o.temelso.etal.dset.3h2o-orca.engrad-mp2.augccpvtz-50.to.69
| 58> ! MP2 aug-cc-pVTZ EnGrad TightSCF FrozenCore
| 59> 
| 60> %pal
| 61>     nprocs 12
| 62> end
| 63> 
| 64> %maxcore 8000
| 65> 
| 66> %scf
| 67>     ConvForced true
| 68> end
| 69> 
| 70> *xyz 0 1
| 71> O   1.444166003  -1.286449038   0.066414601
| 72> H   0.476666003  -1.455949038   0.077614601
| 73> H   1.647966003  -1.131849038  -0.864685399
| 74> O  -1.331933997  -1.506249038   0.259514601
| 75> H  -1.550733997  -0.647549038   0.677114601
| 76> H  -1.642733997  -2.169249038   0.888814601
| 77> O   0.009466003   2.752450962  -0.365885399
| 78> H  -0.105033997   3.699650962  -0.217485399
| 79> H  -0.758033997   2.343850962   0.072914601
| 80> *
| 81> 
| 82> 
| 83> $new_job
| 84> 
| 85> # 5h2o.temelso.etal.dset.3h2o-orca.engrad-mp2.augccpvtz-50.to.69
| 86> ! MP2 aug-cc-pVTZ EnGrad TightSCF FrozenCore
| 87> 
| 88> %pal
| 89>     nprocs 12
| 90> end
| 91> 
| 92> %maxcore 8000
| 93> 
| 94> %scf
| 95>     ConvForced true
| 96> end
| 97> 
| 98> *xyz 0 1
| 99> O   1.036834990  -1.545719369  -0.979105364
|100> H   0.069334990  -1.715219369  -0.967905364
|101> H   1.240634990  -1.391119369  -1.910205364
|102> O  -1.852065010   0.765180631   0.454094636
|103> H  -2.331965010   0.994180631   1.259594636
|104> H  -0.889665010   0.729880631   0.707794636
|105> O   0.818334990   0.777780631   0.583294636
|106> H   0.802734990   1.464080631  -0.107805364
|107> H   1.059634990  -0.038019369   0.093294636
|108> *
|109> 
|110> 
|111> $new_job
|112> 
|113> # 5h2o.temelso.etal.dset.3h2o-orca.engrad-mp2.augccpvtz-50.to.69
|114> ! MP2 aug-cc-pVTZ EnGrad TightSCF FrozenCore
|115> 
|116> %pal
|117>     nprocs 12
|118> end
|119> 
|120> %maxcore 8000
|121> 
|122> %scf
|123>     ConvForced true
|124> end
|125> 
|126> *xyz 0 1
|127> O   1.462891893  -2.129978408  -0.347181442
|128> H   0.495391893  -2.299478408  -0.335981442
|129> H   1.666691893  -1.975378408  -1.278281442
|130> O  -1.426008107   0.180921592   1.086018558
|131> H  -1.905908107   0.409921592   1.891518558
|132> H  -0.463608107   0.145621592   1.339718558
|133> O   0.028191893   1.908921592  -0.779481442
|134> H  -0.086308107   2.856121592  -0.631081442
|135> H  -0.739308107   1.500321592  -0.340681442
|136> *
|137> 
|138> 
|139> $new_job
|140> 
|141> # 5h2o.temelso.etal.dset.3h2o-orca.engrad-mp2.augccpvtz-50.to.69
|142> ! MP2 aug-cc-pVTZ EnGrad TightSCF FrozenCore
|143> 
|144> %pal
|145>     nprocs 12
|146> end
|147> 
|148> %maxcore 8000
|149> 
|150> %scf
|151>     ConvForced true
|152> end
|153> 
|154> *xyz 0 1
|155> O   0.577547485  -2.128151224  -0.348469956
|156> H  -0.389952515  -2.297651224  -0.337269956
|157> H   0.781347485  -1.973551224  -1.279569956
|158> O   0.359047485   0.195348776   1.213930044
|159> H   0.343447485   0.881648776   0.522830044
|160> H   0.600347485  -0.620451224   0.723930044
|161> O  -0.857152515   1.910748776  -0.780769956
|162> H  -0.971652515   2.857948776  -0.632369956
|163> H  -1.624652515   1.502148776  -0.341969956
|164> *
|165> 
|166> 
|167> $new_job
|168> 
|169> # 5h2o.temelso.etal.dset.3h2o-orca.engrad-mp2.augccpvtz-50.to.69
|170> ! MP2 aug-cc-pVTZ EnGrad TightSCF FrozenCore
|171> 
|172> %pal
|173>     nprocs 12
|174> end
|175> 
|176> %maxcore 8000
|177> 
|178> %scf
|179>     ConvForced true
|180> end
|181> 
|182> *xyz 0 1
|183> O  -0.818263949  -1.696180069  -0.887049829
|184> H  -1.037063949  -0.837480069  -0.469449829
|185> H  -1.129063949  -2.359180069  -0.257749829
|186> O  -0.931063949   0.834519931   0.353050171
|187> H  -1.410963949   1.063519931   1.158550171
|188> H   0.031336051   0.799219931   0.606750171
|189> O   1.739336051   0.847119931   0.482250171
|190> H   1.723736051   1.533419931  -0.208849829
|191> H   1.980636051   0.031319931  -0.007749829
|192> *
|193> 
|194> 
|195> $new_job
|196> 
|197> # 5h2o.temelso.etal.dset.3h2o-orca.engrad-mp2.augccpvtz-50.to.69
|198> ! MP2 aug-cc-pVTZ EnGrad TightSCF FrozenCore
|199> 
|200> %pal
|201>     nprocs 12
|202> end
|203> 
|204> %maxcore 8000
|205> 
|206> %scf
|207>     ConvForced true
|208> end
|209> 
|210> *xyz 0 1
|211> O  -0.392207046  -2.280439108  -0.255125907
|212> H  -0.611007046  -1.421739108   0.162474093
|213> H  -0.703007046  -2.943439108   0.374174093
|214> O  -0.505007046   0.250260892   0.984974093
|215> H  -0.984907046   0.479260892   1.790474093
|216> H   0.457392954   0.214960892   1.238674093
|217> O   0.949192954   1.978260892  -0.880525907
|218> H   0.834692954   2.925460892  -0.732125907
|219> H   0.181692954   1.569660892  -0.441725907
|220> *
|221> 
|222> 
|223> $new_job
|224> 
|225> # 5h2o.temelso.etal.dset.3h2o-orca.engrad-mp2.augccpvtz-50.to.69
|226> ! MP2 aug-cc-pVTZ EnGrad TightSCF FrozenCore
|227> 
|228> %pal
|229>     nprocs 12
|230> end
|231> 
|232> %maxcore 8000
|233> 
|234> %scf
|235>     ConvForced true
|236> end
|237> 
|238> *xyz 0 1
|239> O  -1.277551453  -2.278611924  -0.256414421
|240> H  -1.496351453  -1.419911924   0.161185579
|241> H  -1.588351453  -2.941611924   0.372885579
|242> O   1.280048547   0.264688076   1.112885579
|243> H   1.264448547   0.950988076   0.421785579
|244> H   1.521348547  -0.551111924   0.622885579
|245> O   0.063848547   1.980088076  -0.881814421
|246> H  -0.050651453   2.927288076  -0.733414421
|247> H  -0.703651453   1.571488076  -0.443014421
|248> *
|249> 
|250> 
|251> $new_job
|252> 
|253> # 5h2o.temelso.etal.dset.3h2o-orca.engrad-mp2.augccpvtz-50.to.69
|254> ! MP2 aug-cc-pVTZ EnGrad TightSCF FrozenCore
|255> 
|256> %pal
|257>     nprocs 12
|258> end
|259> 
|260> %maxcore 8000
|261> 
|262> %scf
|263>     ConvForced true
|264> end
|265> 
|266> *xyz 0 1
|267> O  -1.371625564  -0.591441294   0.570089536
|268> H  -1.851525564  -0.362441294   1.375589536
|269> H  -0.409225564  -0.626741294   0.823789536
|270> O   1.298774436  -0.578841294   0.699289536
|271> H   1.283174436   0.107458706   0.008189536
|272> H   1.540074436  -1.394641294   0.209289536
|273> O   0.082574436   1.136558706  -1.295410464
|274> H  -0.031925564   2.083758706  -1.147010464
|275> H  -0.684925564   0.727958706  -0.856610464
|276> *
|277> 
|278> 
|279> $new_job
|280> 
|281> # 5h2o.temelso.etal.dset.3h2o-orca.engrad-mp2.augccpvtz-50.to.69
|282> ! MP2 aug-cc-pVTZ EnGrad TightSCF FrozenCore
|283> 
|284> %pal
|285>     nprocs 12
|286> end
|287> 
|288> %maxcore 8000
|289> 
|290> %scf
|291>     ConvForced true
|292> end
|293> 
|294> *xyz 0 1
|295> O   1.886886981  -0.929803192  -0.079245996
|296> H   0.936686981  -1.026403192  -0.301445996
|297> H   2.090386981  -1.699103192   0.466454004
|298> O  -0.912913019  -0.871203192  -0.472445996
|299> H  -1.065713019   0.069796808  -0.247045996
|300> H  -1.481213019  -1.356903192   0.137854004
|301> O  -0.911013019   1.809996808   0.425054004
|302> H  -1.471713019   2.171496808   1.122554004
|303> H  -0.007913019   1.698396808   0.831954004
|304> *
|305> 
|306> 
|307> $new_job
|308> 
|309> # 5h2o.temelso.etal.dset.3h2o-orca.engrad-mp2.augccpvtz-50.to.69
|310> ! MP2 aug-cc-pVTZ EnGrad TightSCF FrozenCore
|311> 
|312> %pal
|313>     nprocs 12
|314> end
|315> 
|316> %maxcore 8000
|317> 
|318> %scf
|319>     ConvForced true
|320> end
|321> 
|322> *xyz 0 1
|323> O   1.022965494  -0.856723950  -0.247772995
|324> H   0.072765494  -0.953323950  -0.469972995
|325> H   1.226465494  -1.626023950   0.297927005
|326> O  -1.776834506  -0.798123950  -0.640972995
|327> H  -1.929634506   0.142876050  -0.415572995
|328> H  -2.345134506  -1.283823950  -0.030672995
|329> O   0.811565494   1.691576050   0.884427005
|330> H   1.004565494   2.323276050   0.167827005
|331> H   1.055065494   0.813976050   0.519027005
|332> *
|333> 
|334> 
|335> $new_job
|336> 
|337> # 5h2o.temelso.etal.dset.3h2o-orca.engrad-mp2.augccpvtz-50.to.69
|338> ! MP2 aug-cc-pVTZ EnGrad TightSCF FrozenCore
|339> 
|340> %pal
|341>     nprocs 12
|342> end
|343> 
|344> %maxcore 8000
|345> 
|346> %scf
|347>     ConvForced true
|348> end
|349> 
|350> *xyz 0 1
|351> O   1.257501537  -1.477231772   0.441739372
|352> H   0.307301537  -1.573831772   0.219539372
|353> H   1.461001537  -2.246531772   0.987439372
|354> O  -1.542298463  -1.418631772   0.048539372
|355> H  -1.695098463  -0.477631772   0.273939372
|356> H  -2.110598463  -1.904331772   0.658839372
|357> O   0.419401537   2.886968228  -0.580960628
|358> H   0.351401537   3.823468228  -0.355260628
|359> H  -0.450798463   2.520068228  -0.344960628
|360> *
|361> 
|362> 
|363> $new_job
|364> 
|365> # 5h2o.temelso.etal.dset.3h2o-orca.engrad-mp2.augccpvtz-50.to.69
|366> ! MP2 aug-cc-pVTZ EnGrad TightSCF FrozenCore
|367> 
|368> %pal
|369>     nprocs 12
|370> end
|371> 
|372> %maxcore 8000
|373> 
|374> %scf
|375>     ConvForced true
|376> end
|377> 
|378> *xyz 0 1
|379> O   1.002499519  -1.746626889  -0.551950504
|380> H   0.052299519  -1.843226889  -0.774150504
|381> H   1.205999519  -2.515926889  -0.006250504
|382> O  -1.795400481   0.993173111  -0.047650504
|383> H  -2.356100481   1.354673111   0.649849496
|384> H  -0.892300481   0.881573111   0.359249496
|385> O   0.791099519   0.801673111   0.580249496
|386> H   0.984099519   1.433373111  -0.136350504
|387> H   1.034599519  -0.075926889   0.214849496
|388> *
|389> 
|390> 
|391> $new_job
|392> 
|393> # 5h2o.temelso.etal.dset.3h2o-orca.engrad-mp2.augccpvtz-50.to.69
|394> ! MP2 aug-cc-pVTZ EnGrad TightSCF FrozenCore
|395> 
|396> %pal
|397>     nprocs 12
|398> end
|399> 
|400> %maxcore 8000
|401> 
|402> %scf
|403>     ConvForced true
|404> end
|405> 
|406> *xyz 0 1
|407> O   1.237035563  -2.367134711   0.137561863
|408> H   0.286835563  -2.463734711  -0.084638137
|409> H   1.440535563  -3.136434711   0.683261863
|410> O  -1.560864437   0.372665289   0.641861863
|411> H  -2.121564437   0.734165289   1.339361863
|412> H  -0.657764437   0.261065289   1.048761863
|413> O   0.398935563   1.997065289  -0.885138137
|414> H   0.330935563   2.933565289  -0.659438137
|415> H  -0.471264437   1.630165289  -0.649138137
|416> *
|417> 
|418> 
|419> $new_job
|420> 
|421> # 5h2o.temelso.etal.dset.3h2o-orca.engrad-mp2.augccpvtz-50.to.69
|422> ! MP2 aug-cc-pVTZ EnGrad TightSCF FrozenCore
|423> 
|424> %pal
|425>     nprocs 12
|426> end
|427> 
|428> %maxcore 8000
|429> 
|430> %scf
|431>     ConvForced true
|432> end
|433> 
|434> *xyz 0 1
|435> O   0.373114075  -2.294055470  -0.030965136
|436> H  -0.577085925  -2.390655470  -0.253165136
|437> H   0.576614075  -3.063355470   0.514734864
|438> O   0.161714075   0.254244530   1.101234864
|439> H   0.354714075   0.885944530   0.384634864
|440> H   0.405214075  -0.623355470   0.735834864
|441> O  -0.464985925   2.070144530  -1.053665136
|442> H  -0.532985925   3.006644530  -0.827965136
|443> H  -1.335185925   1.703244530  -0.817665136
|444> *
|445> 
|446> 
|447> $new_job
|448> 
|449> # 5h2o.temelso.etal.dset.3h2o-orca.engrad-mp2.augccpvtz-50.to.69
|450> ! MP2 aug-cc-pVTZ EnGrad TightSCF FrozenCore
|451> 
|452> %pal
|453>     nprocs 12
|454> end
|455> 
|456> %maxcore 8000
|457> 
|458> %scf
|459>     ConvForced true
|460> end
|461> 
|462> *xyz 0 1
|463> O  -0.864511215  -1.732198573  -0.823635580
|464> H  -1.017311215  -0.791198573  -0.598235580
|465> H  -1.432811215  -2.217898573  -0.213335580
|466> O  -0.862611215   0.949001427   0.073864420
|467> H  -1.423311215   1.310501427   0.771364420
|468> H   0.040488785   0.837401427   0.480764420
|469> O   1.723888785   0.757501427   0.701764420
|470> H   1.916888785   1.389201427  -0.014835580
|471> H   1.967388785  -0.120098573   0.336364420
|472> *
|473> 
|474> 
|475> $new_job
|476> 
|477> # 5h2o.temelso.etal.dset.3h2o-orca.engrad-mp2.augccpvtz-50.to.69
|478> ! MP2 aug-cc-pVTZ EnGrad TightSCF FrozenCore
|479> 
|480> %pal
|481>     nprocs 12
|482> end
|483> 
|484> %maxcore 8000
|485> 
|486> %scf
|487>     ConvForced true
|488> end
|489> 
|490> *xyz 0 1
|491> O  -0.629975171  -2.352706395  -0.134123214
|492> H  -0.782775171  -1.411706395   0.091276786
|493> H  -1.198275171  -2.838406395   0.476176786
|494> O  -0.628075171   0.328493605   0.763376786
|495> H  -1.188775171   0.689993605   1.460876786
|496> H   0.275024829   0.216893605   1.170276786
|497> O   1.331724829   1.952893605  -0.763623214
|498> H   1.263724829   2.889393605  -0.537923214
|499> H   0.461524829   1.585993605  -0.527623214
|500> *
|501> 
|502> 
|503> $new_job
|504> 
|505> # 5h2o.temelso.etal.dset.3h2o-orca.engrad-mp2.augccpvtz-50.to.69
|506> ! MP2 aug-cc-pVTZ EnGrad TightSCF FrozenCore
|507> 
|508> %pal
|509>     nprocs 12
|510> end
|511> 
|512> %maxcore 8000
|513> 
|514> %scf
|515>     ConvForced true
|516> end
|517> 
|518> *xyz 0 1
|519> O  -1.493896659  -2.279627153  -0.302650212
|520> H  -1.646696659  -1.338627153  -0.077250212
|521> H  -2.062196659  -2.765327153   0.307649788
|522> O   1.094503341   0.210072847   1.222749788
|523> H   1.287503341   0.841772847   0.506149788
|524> H   1.338003341  -0.667527153   0.857349788
|525> O   0.467803341   2.025972847  -0.932150212
|526> H   0.399803341   2.962472847  -0.706450212
|527> H  -0.402396659   1.659072847  -0.696150212
|528> *
|529> 
|530> 
|531> $new_job
|532> 
|533> # 5h2o.temelso.etal.dset.3h2o-orca.engrad-mp2.augccpvtz-50.to.69
|534> ! MP2 aug-cc-pVTZ EnGrad TightSCF FrozenCore
|535> 
|536> %pal
|537>     nprocs 12
|538> end
|539> 
|540> %maxcore 8000
|541> 
|542> %scf
|543>     ConvForced true
|544> end
|545> 
|546> *xyz 0 1
|547> O  -1.512462633  -0.488330092   0.290672279
|548> H  -2.073162633  -0.126830092   0.988172279
|549> H  -0.609362633  -0.599930092   0.697572279
|550> O   1.074037367  -0.679830092   0.918572279
|551> H   1.267037367  -0.048130092   0.201972279
|552> H   1.317537367  -1.557430092   0.553172279
|553> O   0.447337367   1.136069908  -1.236327721
|554> H   0.379337367   2.072569908  -1.010627721
|555> H  -0.422862633   0.769169908  -1.000327721
|556> *
|557> 
|558>                          ****END OF INPUT****
================================================================================


                 $$$$$$$$$$$$$$$$$$$$$$$$$$$$$$$$$$$$$$$$$$$$$$ 
                 $ THERE ARE 20 JOBS TO BE PROCESSED THIS RUN $
                 $$$$$$$$$$$$$$$$$$$$$$$$$$$$$$$$$$$$$$$$$$$$$$ 




                 $$$$$$$$$$$$$$$$  JOB NUMBER  1 $$$$$$$$$$$$$$


                     *******************************
                     * Energy+Gradient Calculation *
                     *******************************

---------------------------------
CARTESIAN COORDINATES (ANGSTROEM)
---------------------------------
  O      1.903454   -0.704017   -0.564221
  H      0.935954   -0.873517   -0.553021
  H      2.107254   -0.549417   -1.495321
  O     -0.872646   -0.923817   -0.371121
  H     -1.091446   -0.065117    0.046479
  H     -1.183446   -1.586817    0.258179
  O     -0.985446    1.606883    0.868979
  H     -1.465346    1.835883    1.674479
  H     -0.023046    1.571583    1.122679

----------------------------
CARTESIAN COORDINATES (A.U.)
----------------------------
  NO LB      ZA    FRAG     MASS         X           Y           Z
   0 O     8.0000    0    15.999    3.597006   -1.330400   -1.066223
   1 H     1.0000    0     1.008    1.768696   -1.650708   -1.045058
   2 H     1.0000    0     1.008    3.982132   -1.038248   -2.825747
   3 O     8.0000    0    15.999   -1.649063   -1.745761   -0.701317
   4 H     1.0000    0     1.008   -2.062535   -0.123054    0.087833
   5 H     1.0000    0     1.008   -2.236390   -2.998650    0.487888
   6 O     8.0000    0    15.999   -1.862224    3.036568    1.642133
   7 H     1.0000    0     1.008   -2.769104    3.469316    3.164307
   8 H     1.0000    0     1.008   -0.043552    2.969861    2.121556

--------------------------------
INTERNAL COORDINATES (ANGSTROEM)
--------------------------------
 O      0   0   0     0.000000000000     0.00000000     0.00000000
 H      1   0   0     0.982299312837     0.00000000     0.00000000
 H      1   2   0     0.965599715203   104.27064061     0.00000000
 O      2   1   3     1.818420099977   170.24073404   245.59688270
 H      4   2   1     0.979606497528   103.91867602     6.51259206
 H      4   2   1     0.965496830652   113.85121153   253.33129084
 O      5   4   2     1.866367126264   163.83592762   353.03447759
 H      7   5   4     0.965181464803   123.51115633   231.49042750
 H      7   5   4     0.995903378848    97.78144513   346.63767189

---------------------------
INTERNAL COORDINATES (A.U.)
---------------------------
 O      0   0   0     0.000000000000     0.00000000     0.00000000
 H      1   0   0     1.856276682801     0.00000000     0.00000000
 H      1   2   0     1.824719016726   104.27064061     0.00000000
 O      2   1   3     3.436315985374   170.24073404   245.59688270
 H      4   2   1     1.851187999339   103.91867602     6.51259206
 H      4   2   1     1.824524593102   113.85121153   253.33129084
 O      5   4   2     3.526922733993   163.83592762   353.03447759
 H      7   5   4     1.823928638015   123.51115633   231.49042750
 H      7   5   4     1.881984641869    97.78144513   346.63767189

---------------------
BASIS SET INFORMATION
---------------------
There are 2 groups of distinct atoms

 Group   1 Type O   : 19s6p3d2f contracted to 5s4p3d2f pattern {88111/3111/111/11}
 Group   2 Type H   : 6s3p2d contracted to 4s3p2d pattern {3111/111/11}

Atom   0O    basis set group =>   1
Atom   1H    basis set group =>   2
Atom   2H    basis set group =>   2
Atom   3O    basis set group =>   1
Atom   4H    basis set group =>   2
Atom   5H    basis set group =>   2
Atom   6O    basis set group =>   1
Atom   7H    basis set group =>   2
Atom   8H    basis set group =>   2


           ************************************************************
           *        Program running with 12 parallel MPI-processes    *
           *              working on a common directory               *
           ************************************************************
------------------------------------------------------------------------------
                           ORCA GTO INTEGRAL CALCULATION
------------------------------------------------------------------------------

                         BASIS SET STATISTICS AND STARTUP INFO

 # of primitive gaussian shells          ...  156
 # of primitive gaussian functions       ...  348
 # of contracted shells                  ...   96
 # of contracted basis functions         ...  276
 Highest angular momentum                ...    3
 Maximum contraction depth               ...    8
 Integral package used                   ... LIBINT
 Integral threshhold            Thresh   ...  2.500e-11
 Primitive cut-off              TCut     ...  2.500e-12


------------------------------ INTEGRAL EVALUATION ----------------------------


 * One electron integrals 
 Pre-screening matrix                    ... done
 Shell pair data                         ... done (   0.001 sec)



           ************************************************************
           *        Program running with 12 parallel MPI-processes    *
           *              working on a common directory               *
           ************************************************************
-------------------------------------------------------------------------------
                                 ORCA SCF
-------------------------------------------------------------------------------

------------
SCF SETTINGS
------------
Hamiltonian:
 Ab initio Hamiltonian  Method          .... Hartree-Fock(GTOs)


General Settings:
 Integral files         IntName         .... 5h2o.temelso.etal.dset.3h2o-orca.engrad-mp2.augccpvtz-50.to.69
 Hartree-Fock type      HFTyp           .... RHF
 Total Charge           Charge          ....    0
 Multiplicity           Mult            ....    1
 Number of Electrons    NEL             ....   30
 Basis Dimension        Dim             ....  276
 Nuclear Repulsion      ENuc            ....     78.5104435035 Eh

Convergence Acceleration:
 DIIS                   CNVDIIS         .... on
   Start iteration      DIISMaxIt       ....    12
   Startup error        DIISStart       ....  0.200000
   # of expansion vecs  DIISMaxEq       ....     5
   Bias factor          DIISBfac        ....   1.050
   Max. coefficient     DIISMaxC        ....  10.000
 Newton-Raphson         CNVNR           .... off
 SOSCF                  CNVSOSCF        .... on
   Start iteration      SOSCFMaxIt      ....   150
   Startup grad/error   SOSCFStart      ....  0.003300
 Level Shifting         CNVShift        .... on
   Level shift para.    LevelShift      ....    0.2500
   Turn off err/grad.   ShiftErr        ....    0.0010
 Zerner damping         CNVZerner       .... off
 Static damping         CNVDamp         .... on
   Fraction old density DampFac         ....    0.7000
   Max. Damping (<1)    DampMax         ....    0.9800
   Min. Damping (>=0)   DampMin         ....    0.0000
   Turn off err/grad.   DampErr         ....    0.1000
 Fernandez-Rico         CNVRico         .... off

SCF Procedure:
 Maximum # iterations   MaxIter         ....   125
 SCF integral mode      SCFMode         .... Direct
   Integral package                     .... LIBINT
 Reset frequency        DirectResetFreq ....    20
 Integral Threshold     Thresh          ....  2.500e-11 Eh
 Primitive CutOff       TCut            ....  2.500e-12 Eh

Convergence Tolerance:
 Convergence Check Mode ConvCheckMode   .... Total+1el-Energy
 Convergence forced     ConvForced      .... 1
 Energy Change          TolE            ....  1.000e-08 Eh
 1-El. energy change                    ....  1.000e-05 Eh
 Orbital Gradient       TolG            ....  1.000e-05
 Orbital Rotation angle TolX            ....  1.000e-05
 DIIS Error             TolErr          ....  5.000e-07


Diagonalization of the overlap matrix:
Smallest eigenvalue                        ... 1.558e-04
Time for diagonalization                   ...    0.008 sec
Threshold for overlap eigenvalues          ... 1.000e-08
Number of eigenvalues below threshold      ... 0
Time for construction of square roots      ...    0.005 sec
Total time needed                          ...    0.013 sec

-------------------
DFT GRID GENERATION
-------------------

General Integration Accuracy     IntAcc      ...  4.340
Radial Grid Type                 RadialGrid  ... Gauss-Chebyshev
Angular Grid (max. acc.)         AngularGrid ... Lebedev-110
Angular grid pruning method      GridPruning ... 3 (G Style)
Weight generation scheme         WeightScheme... Becke
Basis function cutoff            BFCut       ...    1.0000e-11
Integration weight cutoff        WCut        ...    1.0000e-14
Grids for H and He will be reduced by one unit

# of grid points (after initial pruning)     ...   9912 (   0.0 sec)
# of grid points (after weights+screening)   ...   9606 (   0.0 sec)
nearest neighbour list constructed           ...    0.0 sec
Grid point re-assignment to atoms done       ...    0.0 sec
Grid point division into batches done        ...    0.0 sec
Reduced shell lists constructed in    0.0 sec

Total number of grid points                  ...     9606
Total number of batches                      ...      156
Average number of points per batch           ...       61
Average number of grid points per atom       ...     1067
Average number of shells per batch           ...    67.14 (69.94%)
Average number of basis functions per batch  ...   188.86 (68.43%)
Average number of large shells per batch     ...    55.71 (82.98%)
Average number of large basis fcns per batch ...   153.29 (81.16%)
Maximum spatial batch extension              ...  14.87, 17.28, 14.06 au
Average spatial batch extension              ...   0.36,  0.43,  0.41 au

Time for grid setup =    0.018 sec

------------------------------
INITIAL GUESS: MODEL POTENTIAL
------------------------------
Loading Hartree-Fock densities                     ... done
Calculating cut-offs                               ... done
Setting up the integral package                    ... done
Initializing the effective Hamiltonian             ... done
Starting the Coulomb interaction                   ... done (   0.0 sec)
Reading the grid                                   ... done
Mapping shells                                     ... done
Starting the XC term evaluation                    ... done (   0.0 sec)
Transforming the Hamiltonian                       ... done (   0.0 sec)
Diagonalizing the Hamiltonian                      ... done (   0.0 sec)
Back transforming the eigenvectors                 ... done (   0.0 sec)
Now organizing SCF variables                       ... done
                      ------------------
                      INITIAL GUESS DONE (   0.1 sec)
                      ------------------
--------------
SCF ITERATIONS
--------------
ITER       Energy         Delta-E        Max-DP      RMS-DP      [F,P]     Damp
               ***  Starting incremental Fock matrix formation  ***
  0   -227.9162328609   0.000000000000 0.02805281  0.00059191  0.3889589 0.7000
  1   -228.0235998296  -0.107366968636 0.01848132  0.00040995  0.2291356 0.7000
                               ***Turning on DIIS***
  2   -228.0801033822  -0.056503552614 0.01193373  0.00023635  0.1227431 0.7000
  3   -228.5268897188  -0.446786336641 0.03058992  0.00047028  0.0847975 0.0000
  4   -228.1162216560   0.410668062827 0.00474593  0.00007944  0.0138242 0.0000
                      *** Initiating the SOSCF procedure ***
                           *** Shutting down DIIS ***
                      *** Re-Reading the Fockian *** 
                      *** Removing any level shift *** 
ITER      Energy       Delta-E        Grad      Rot      Max-DP    RMS-DP
  5   -228.18485902  -0.0686373633  0.000936  0.000936  0.002184  0.000036
               *** Restarting incremental Fock matrix formation ***
  6   -228.18895245  -0.0040934262  0.000396  0.000519  0.001134  0.000017
  7   -228.18896959  -0.0000171407  0.000145  0.000399  0.001075  0.000015
  8   -228.18897361  -0.0000040281  0.000071  0.000045  0.000256  0.000003
  9   -228.18897389  -0.0000002744  0.000018  0.000014  0.000018  0.000000
 10   -228.18897391  -0.0000000196  0.000003  0.000005  0.000007  0.000000
                  ***Gradient check signals convergence***
              ***Rediagonalizing the Fockian in SOSCF/NRSCF***

               *****************************************************
               *                     SUCCESS                       *
               *           SCF CONVERGED AFTER  11 CYCLES          *
               *****************************************************


----------------
TOTAL SCF ENERGY
----------------

Total Energy       :         -228.18897391 Eh           -6209.33766 eV

Components:
Nuclear Repulsion  :           78.51044350 Eh            2136.37778 eV
Electronic Energy  :         -306.69941741 Eh           -8345.71544 eV
One Electron Energy:         -471.11717205 Eh          -12819.74999 eV
Two Electron Energy:          164.41775464 Eh            4474.03456 eV

Virial components:
Potential Energy   :         -455.93905301 Eh          -12406.73238 eV
Kinetic Energy     :          227.75007910 Eh            6197.39472 eV
Virial Ratio       :            2.00192709


---------------
SCF CONVERGENCE
---------------

  Last Energy change         ...   -1.1620e-09  Tolerance :   1.0000e-08
  Last MAX-Density change    ...    2.5540e-06  Tolerance :   1.0000e-07
  Last RMS-Density change    ...    5.7821e-08  Tolerance :   5.0000e-09
  Last Orbital Gradient      ...    8.2586e-07  Tolerance :   1.0000e-05
  Last Orbital Rotation      ...    1.6739e-06  Tolerance :   1.0000e-05

             **** THE GBW FILE WAS UPDATED (5h2o.temelso.etal.dset.3h2o-orca.engrad-mp2.augccpvtz-50.to.69.gbw) ****
             **** DENSITY FILE WAS UPDATED (5h2o.temelso.etal.dset.3h2o-orca.engrad-mp2.augccpvtz-50.to.69.scfp) ****
             **** ENERGY FILE WAS UPDATED (5h2o.temelso.etal.dset.3h2o-orca.engrad-mp2.augccpvtz-50.to.69.en.tmp) ****
             **** THE GBW FILE WAS UPDATED (5h2o.temelso.etal.dset.3h2o-orca.engrad-mp2.augccpvtz-50.to.69.gbw) ****
             **** DENSITY FILE WAS UPDATED (5h2o.temelso.etal.dset.3h2o-orca.engrad-mp2.augccpvtz-50.to.69.scfp) ****
----------------
ORBITAL ENERGIES
----------------

  NO   OCC          E(Eh)            E(eV) 
   0   2.0000     -20.600801      -560.5763 
   1   2.0000     -20.564679      -559.5934 
   2   2.0000     -20.529099      -558.6252 
   3   2.0000      -1.376638       -37.4602 
   4   2.0000      -1.349115       -36.7113 
   5   2.0000      -1.308631       -35.6097 
   6   2.0000      -0.743028       -20.2188 
   7   2.0000      -0.715074       -19.4581 
   8   2.0000      -0.683242       -18.5920 
   9   2.0000      -0.616165       -16.7667 
  10   2.0000      -0.591552       -16.0970 
  11   2.0000      -0.552085       -15.0230 
  12   2.0000      -0.533253       -14.5105 
  13   2.0000      -0.504144       -13.7185 
  14   2.0000      -0.473334       -12.8801 
  15   0.0000       0.019382         0.5274 
  16   0.0000       0.041695         1.1346 
  17   0.0000       0.046027         1.2525 
  18   0.0000       0.055683         1.5152 
  19   0.0000       0.070340         1.9140 
  20   0.0000       0.085829         2.3355 
  21   0.0000       0.122946         3.3455 
  22   0.0000       0.140053         3.8110 
  23   0.0000       0.148513         4.0412 
  24   0.0000       0.160773         4.3748 
  25   0.0000       0.171257         4.6601 
  26   0.0000       0.182282         4.9602 
  27   0.0000       0.185651         5.0518 
  28   0.0000       0.196113         5.3365 
  29   0.0000       0.206130         5.6091 
  30   0.0000       0.212730         5.7887 
  31   0.0000       0.224265         6.1026 
  32   0.0000       0.239256         6.5105 
  33   0.0000       0.248521         6.7626 
  34   0.0000       0.256844         6.9891 
  35   0.0000       0.269578         7.3356 
  36   0.0000       0.286306         7.7908 
  37   0.0000       0.297934         8.1072 
  38   0.0000       0.305366         8.3094 
  39   0.0000       0.332160         9.0385 
  40   0.0000       0.353125         9.6090 
  41   0.0000       0.367419         9.9980 
  42   0.0000       0.376717        10.2510 
  43   0.0000       0.382602        10.4111 
  44   0.0000       0.389823        10.6076 
  45   0.0000       0.406048        11.0491 
  46   0.0000       0.428641        11.6639 
  47   0.0000       0.434646        11.8273 
  48   0.0000       0.437076        11.8934 
  49   0.0000       0.445503        12.1227 
  50   0.0000       0.454649        12.3716 
  51   0.0000       0.467217        12.7136 
  52   0.0000       0.478282        13.0147 
  53   0.0000       0.488597        13.2954 
  54   0.0000       0.502680        13.6786 
  55   0.0000       0.558557        15.1991 
  56   0.0000       0.584712        15.9108 
[...]
      dx2y2   :     0.042248
      dxy     :     0.021471
      f0      :     0.001971  f :     0.020332
      f+1     :     0.001732
      f-1     :     0.002348
      f+2     :     0.003526
      f-2     :     0.001840
      f+3     :     0.002298
      f-3     :     0.006618
  7 H s       :     0.579086  s :     0.579086
      pz      :     0.165469  p :     0.533916
      px      :     0.140983
      py      :     0.227464
      dz2     :     0.041604  d :     0.355890
      dxz     :     0.005946
      dyz     :     0.111525
      dx2y2   :     0.077418
      dxy     :     0.119397
  8 H s       :     0.549624  s :     0.549624
      pz      :     0.174723  p :     0.577615
      px      :     0.247263
      py      :     0.155629
      dz2     :     0.051333  d :     0.442493
      dxz     :     0.119954
      dyz     :     0.043355
      dx2y2   :     0.117195
      dxy     :     0.110656


                      *****************************
                      * MAYER POPULATION ANALYSIS *
                      *****************************

  NA   - Mulliken gross atomic population
  ZA   - Total nuclear charge
  QA   - Mulliken gross atomic charge
  VA   - Mayer's total valence
  BVA  - Mayer's bonded valence
  FA   - Mayer's free valence

  ATOM       NA         ZA         QA         VA         BVA        FA
  0 O      8.5516     8.0000    -0.5516     2.1059     1.7169     0.3889
  1 H      0.8167     1.0000     0.1833     1.0770     1.0091     0.0679
  2 H      0.6866     1.0000     0.3134     0.9741     0.9118     0.0623
  3 O      8.4478     8.0000    -0.4478     2.2019     1.8218     0.3801
  4 H      0.6947     1.0000     0.3053     0.9395     0.8795     0.0600
  5 H      0.8004     1.0000     0.1996     1.0814     1.0144     0.0670
  6 O      8.5193     8.0000    -0.5193     2.1464     1.7646     0.3818
  7 H      0.7993     1.0000     0.2007     1.0686     1.0020     0.0666
  8 H      0.6836     1.0000     0.3164     0.9240     0.8636     0.0604

  Mayer bond orders larger than 0.100000
B(  0-O ,  1-H ) :   0.9840 B(  0-O ,  2-H ) :   0.7976 B(  3-O ,  4-H ) :   0.8588 
B(  3-O ,  5-H ) :   0.9549 B(  6-O ,  7-H ) :   0.9596 B(  6-O ,  8-H ) :   0.8426 



                *******************************************
                * RELAXED MP2 DENSITY POPULATION ANALYSIS *
                *******************************************

------------------------------------------------------------------------------
                           ORCA POPULATION ANALYSIS
------------------------------------------------------------------------------
Input electron density              ... 5h2o.temelso.etal.dset.3h2o-orca.engrad-mp2.augccpvtz-50.to.69_job20.pmp2re
BaseName (.gbw .S,...)              ... 5h2o.temelso.etal.dset.3h2o-orca.engrad-mp2.augccpvtz-50.to.69_job20

                    ********************************
                    * MULLIKEN POPULATION ANALYSIS *
                    ********************************

-----------------------
MULLIKEN ATOMIC CHARGES
-----------------------
   0 O :   -0.530560
   1 H :    0.182835
   2 H :    0.279420
   3 O :   -0.412715
   4 H :    0.283409
   5 H :    0.198282
   6 O :   -0.498686
   7 H :    0.200017
   8 H :    0.297998
Sum of atomic charges:   -0.0000000

--------------------------------
MULLIKEN REDUCED ORBITAL CHARGES
--------------------------------
  0 O s       :     3.881312  s :     3.881312
      pz      :     1.494480  p :     4.594163
      px      :     1.347852
      py      :     1.751831
      dz2     :     0.009925  d :     0.050075
      dxz     :     0.014262
      dyz     :     0.008045
      dx2y2   :     0.011225
      dxy     :     0.006619
      f0      :     0.000547  f :     0.005010
      f+1     :     0.000734
      f-1     :     0.000708
      f+2     :     0.000794
      f-2     :     0.000695
      f+3     :     0.000802
      f-3     :     0.000730
  1 H s       :     0.686549  s :     0.686549
      pz      :     0.031282  p :     0.116110
      px      :     0.032193
      py      :     0.052634
      dz2     :     0.004573  d :     0.014507
      dxz     :     0.000513
      dyz     :     0.003103
      dx2y2   :     0.004165
      dxy     :     0.002152
  2 H s       :     0.589548  s :     0.589548
      pz      :     0.030200  p :     0.086265
      px      :     0.002651
      py      :     0.053414
      dz2     :     0.008385  d :     0.044768
      dxz     :     0.007557
      dyz     :     0.001800
      dx2y2   :     0.010961
      dxy     :     0.016065
  3 O s       :     3.859543  s :     3.859543
      pz      :     1.499194  p :     4.504351
      px      :     1.758724
      py      :     1.246432
      dz2     :     0.009579  d :     0.044192
      dxz     :     0.008448
      dyz     :     0.011525
      dx2y2   :     0.005935
      dxy     :     0.008705
      f0      :     0.000615  f :     0.004629
      f+1     :     0.000612
      f-1     :     0.000595
      f+2     :     0.000714
      f-2     :     0.000780
      f+3     :     0.000572
      f-3     :     0.000742
  4 H s       :     0.586352  s :     0.586352
      pz      :     0.020154  p :     0.104647
      px      :     0.046104
      py      :     0.038389
      dz2     :     0.006668  d :     0.025592
      dxz     :     0.008195
      dyz     :    -0.000505
      dx2y2   :     0.004011
      dxy     :     0.007223
  5 H s       :     0.668542  s :     0.668542
      pz      :     0.033423  p :     0.117146
      px      :     0.056593
      py      :     0.027130
      dz2     :     0.001532  d :     0.016030
      dxz     :     0.000799
      dyz     :     0.004334
      dx2y2   :     0.002425
      dxy     :     0.006940
  6 O s       :     3.892988  s :     3.892988
      pz      :     1.787579  p :     4.557047
      px      :     1.465681
      py      :     1.303787
      dz2     :     0.008535  d :     0.043775
      dxz     :     0.009080
      dyz     :     0.006350
      dx2y2   :     0.011743
      dxy     :     0.008067
      f0      :     0.000749  f :     0.004876
      f+1     :     0.000744
      f-1     :     0.000802
      f+2     :     0.000730
      f-2     :     0.000624
      f+3     :     0.000584
      f-3     :     0.000644
  7 H s       :     0.669111  s :     0.669111
      pz      :     0.052987  p :     0.116074
      px      :     0.037861
      py      :     0.025225
      dz2     :     0.001616  d :     0.014798
      dxz     :     0.000346
      dyz     :     0.006766
      dx2y2   :     0.000159
      dxy     :     0.005911
  8 H s       :     0.580664  s :     0.580664
      pz      :     0.045796  p :     0.097582
      px      :     0.019772
      py      :     0.032014
      dz2     :     0.002691  d :     0.023755
      dxz     :     0.006861
      dyz     :     0.004205
      dx2y2   :     0.005863
      dxy     :     0.004136


                     *******************************
                     * LOEWDIN POPULATION ANALYSIS *
                     *******************************

----------------------
LOEWDIN ATOMIC CHARGES
----------------------
   0 O :    1.048574
   1 H :   -0.485435
   2 H :   -0.707902
   3 O :    1.095576
   4 H :   -0.562691
   5 H :   -0.409601
   6 O :    1.069397
   7 H :   -0.471582
   8 H :   -0.576335

-------------------------------
LOEWDIN REDUCED ORBITAL CHARGES
-------------------------------
  0 O s       :     2.986797  s :     2.986797
      pz      :     1.289592  p :     3.833390
      px      :     1.189655
      py      :     1.354143
      dz2     :     0.012297  d :     0.111584
      dxz     :     0.042796
      dyz     :     0.016263
      dx2y2   :     0.024871
      dxy     :     0.015356
      f0      :     0.002360  f :     0.019655
      f+1     :     0.003821
      f-1     :     0.001967
      f+2     :     0.003833
      f-2     :     0.003731
      f+3     :     0.002560
      f-3     :     0.001383
  1 H s       :     0.581520  s :     0.581520
      pz      :     0.214891  p :     0.557304
      px      :     0.155848
      py      :     0.186565
      dz2     :     0.097512  d :     0.346611
      dxz     :     0.071137
      dyz     :     0.070409
      dx2y2   :     0.057814
      dxy     :     0.049738
  2 H s       :     0.521913  s :     0.521913
      pz      :     0.166685  p :     0.655423
      px      :     0.334931
      py      :     0.153807
      dz2     :     0.069420  d :     0.530565
      dxz     :     0.158159
      dyz     :     0.023438
      dx2y2   :     0.142161
      dxy     :     0.137387
  3 O s       :     2.955163  s :     2.955163
      pz      :     1.308054  p :     3.792673
      px      :     1.336236
      py      :     1.148382
      dz2     :     0.019181  d :     0.131798
      dxz     :     0.013495
      dyz     :     0.040128
      dx2y2   :     0.041036
      dxy     :     0.017958
      f0      :     0.002522  f :     0.024789
      f+1     :     0.002130
      f-1     :     0.004385
      f+2     :     0.005238
      f-2     :     0.003030
      f+3     :     0.004581
      f-3     :     0.002903
  4 H s       :     0.538941  s :     0.538941
      pz      :     0.239273  p :     0.583920
      px      :     0.158487
      py      :     0.186160
      dz2     :     0.119893  d :     0.439831
      dxz     :     0.077527
      dyz     :     0.113541
      dx2y2   :     0.067634
      dxy     :     0.061235
  5 H s       :     0.555599  s :     0.555599
      pz      :     0.162124  p :     0.515923
      px      :     0.153877
      py      :     0.199922
      dz2     :     0.044668  d :     0.338079
      dxz     :     0.019628
      dyz     :     0.102415
      dx2y2   :     0.085794
      dxy     :     0.085575
  6 O s       :     2.978598  s :     2.978598
      pz      :     1.374660  p :     3.821644
      px      :     1.268112
      py      :     1.178872
      dz2     :     0.016555  d :     0.109802
      dxz     :     0.013279
      dyz     :     0.017769
      dx2y2   :     0.041239
      dxy     :     0.020961
      f0      :     0.001997  f :     0.020560
      f+1     :     0.001758
      f-1     :     0.002403
      f+2     :     0.003557
      f-2     :     0.001874
      f+3     :     0.002262
      f-3     :     0.006709
  7 H s       :     0.574223  s :     0.574223
      pz      :     0.174795  p :     0.548728
      px      :     0.145564
      py      :     0.228369
      dz2     :     0.040502  d :     0.348632
      dxz     :     0.005791
      dyz     :     0.108482
      dx2y2   :     0.077104
      dxy     :     0.116752
  8 H s       :     0.548225  s :     0.548225
      pz      :     0.182909  p :     0.592064
      px      :     0.251584
      py      :     0.157570
      dz2     :     0.050553  d :     0.436047
      dxz     :     0.117617
      dyz     :     0.043056
      dx2y2   :     0.115637
      dxy     :     0.109184


                      *****************************
                      * MAYER POPULATION ANALYSIS *
                      *****************************

  NA   - Mulliken gross atomic population
  ZA   - Total nuclear charge
  QA   - Mulliken gross atomic charge
  VA   - Mayer's total valence
  BVA  - Mayer's bonded valence
  FA   - Mayer's free valence

  ATOM       NA         ZA         QA         VA         BVA        FA
  0 O      8.5306     8.0000    -0.5306     2.1418     1.7604     0.3813
  1 H      0.8172     1.0000     0.1828     1.0921     1.0256     0.0665
  2 H      0.7206     1.0000     0.2794     1.0275     0.9672     0.0603
  3 O      8.4127     8.0000    -0.4127     2.2636     1.8906     0.3730
  4 H      0.7166     1.0000     0.2834     0.9824     0.9239     0.0585
  5 H      0.8017     1.0000     0.1983     1.0912     1.0250     0.0662
  6 O      8.4987     8.0000    -0.4987     2.1927     1.8180     0.3746
  7 H      0.8000     1.0000     0.2000     1.0809     1.0153     0.0656
  8 H      0.7020     1.0000     0.2980     0.9626     0.9039     0.0588

  Mayer bond orders larger than 0.100000
B(  0-O ,  1-H ) :   0.9949 B(  0-O ,  2-H ) :   0.8014 B(  2-H ,  3-O ) :   0.1123 
B(  3-O ,  4-H ) :   0.8682 B(  3-O ,  5-H ) :   0.9622 B(  6-O ,  7-H ) :   0.9706 
B(  6-O ,  8-H ) :   0.8527 


----------------------------------
MP2 DERIVATIVE INTEGRAL GENERATION
----------------------------------


Input Wavefunction Amplitudes       ... 5h2o.temelso.etal.dset.3h2o-orca.engrad-mp2.augccpvtz-50.to.69_job20.mp2tsaa.tmp
Input Correlated Electron Density   ... 5h2o.temelso.etal.dset.3h2o-orca.engrad-mp2.augccpvtz-50.to.69_job20.pmp2re
Input Energy Weighted Density       ... 5h2o.temelso.etal.dset.3h2o-orca.engrad-mp2.augccpvtz-50.to.69_job20.wmp2.tmp
Input SCF Electron Density          ... 5h2o.temelso.etal.dset.3h2o-orca.engrad-mp2.augccpvtz-50.to.69_job20.scfp

One-Electron Terms    ...
                        ... One-Electron Terms done
Prescreening matrices              ... done

Batch handling in the gradient evaluation:
Memory available                      ... 8000.0 MB
Memory per occupied orbital in Q2     ...    7.0 MB
Memory per occupied orbital in Q3     ...    0.1 MB
Total memory requirement per |i>      ...    7.1 MB
Max. Number of orbitals possible      ...   1130
Number of orbitals treated per batch  ...     12
Number of batches to be done          ...      1
Batch   0: i=    3 ...    14

---------------------------------------
MP2 TOTAL ENERGY:     -229.009570829 Eh
---------------------------------------

The final MP2 gradient
  0:  -0.00764213  -0.00287083  -0.00467484
  1:  -0.00305690   0.00229795   0.00263556
  2:   0.01514374  -0.00133736   0.00356161
  3:  -0.00851356   0.01534942   0.00697559
  4:   0.00131898   0.00157503   0.00020724
  5:   0.00236949  -0.01662603  -0.00643153
  6:   0.00164866  -0.00189760  -0.00326224
  7:  -0.00022866   0.00377914   0.00183447
  8:  -0.00103962  -0.00026972  -0.00084584

-----------------------------------
NORM OF THE MP2 GRADIENT:  0.032784
-----------------------------------

-------------------------   --------------------
FINAL SINGLE POINT ENERGY      -229.009570829265
-------------------------   --------------------


                            ***************************************
                            *     ORCA property calculations      *
                            ***************************************

                                    ---------------------
                                    Active property flags
                                    ---------------------
   (+) Dipole Moment


------------------------------------------------------------------------------
                       ORCA ELECTRIC PROPERTIES CALCULATION
------------------------------------------------------------------------------

Dipole Moment Calculation                       ... on
Quadrupole Moment Calculation                   ... off
Polarizability Calculation                      ... off
GBWName                                         ... 5h2o.temelso.etal.dset.3h2o-orca.engrad-mp2.augccpvtz-50.to.69_job20.gbw
Electron density file                           ... 5h2o.temelso.etal.dset.3h2o-orca.engrad-mp2.augccpvtz-50.to.69_job20.scfp
The origin for moment calculation is the CENTER OF MASS  = (-0.000001,  0.000003  0.000002)

-------------
DIPOLE MOMENT
-------------
                                X             Y             Z
Electronic contribution:      0.19585      -0.10718      -0.07453
Nuclear contribution   :     -0.13260       0.47744       0.40295
                        -----------------------------------------
Total Dipole Moment    :      0.06326       0.37026       0.32841
                        -----------------------------------------
Magnitude (a.u.)       :      0.49895
Magnitude (Debye)      :      1.26823



--------------------
Rotational spectrum 
--------------------
 
Rotational constants in cm-1:     0.253087     0.198650     0.114365 
Rotational constants in MHz :  7587.371376  5955.368142  3428.586665 

 Dipole components along the rotational axes: 
x,y,z [a.u.] :     0.048920     0.083064     0.489547 
x,y,z [Debye]:     0.124345     0.211132     1.244330 

 

                         *** MP2 UNRELAXED DENSITY ***

------------------------------------------------------------------------------
                       ORCA ELECTRIC PROPERTIES CALCULATION
------------------------------------------------------------------------------

Dipole Moment Calculation                       ... on
Quadrupole Moment Calculation                   ... off
Polarizability Calculation                      ... off
GBWName                                         ... 5h2o.temelso.etal.dset.3h2o-orca.engrad-mp2.augccpvtz-50.to.69_job20.gbw
Electron density file                           ... 5h2o.temelso.etal.dset.3h2o-orca.engrad-mp2.augccpvtz-50.to.69_job20.pmp2ur
The origin for moment calculation is the CENTER OF MASS  = (-0.000001,  0.000003  0.000002)

-------------
DIPOLE MOMENT
-------------
                                X             Y             Z
Electronic contribution:      0.19975      -0.11536      -0.08147
Nuclear contribution   :     -0.13260       0.47744       0.40295
                        -----------------------------------------
Total Dipole Moment    :      0.06716       0.36208       0.32148
                        -----------------------------------------
Magnitude (a.u.)       :      0.48883
Magnitude (Debye)      :      1.24252



--------------------
Rotational spectrum 
--------------------
 
Rotational constants in cm-1:     0.253087     0.198650     0.114365 
Rotational constants in MHz :  7587.371376  5955.368142  3428.586665 

 Dipole components along the rotational axes: 
x,y,z [a.u.] :     0.049522     0.086258     0.478608 
x,y,z [Debye]:     0.125875     0.219250     1.216524 

 

                           *** MP2 RELAXED DENSITY ***

------------------------------------------------------------------------------
                       ORCA ELECTRIC PROPERTIES CALCULATION
------------------------------------------------------------------------------

Dipole Moment Calculation                       ... on
Quadrupole Moment Calculation                   ... off
Polarizability Calculation                      ... off
GBWName                                         ... 5h2o.temelso.etal.dset.3h2o-orca.engrad-mp2.augccpvtz-50.to.69_job20.gbw
Electron density file                           ... 5h2o.temelso.etal.dset.3h2o-orca.engrad-mp2.augccpvtz-50.to.69_job20.pmp2re
The origin for moment calculation is the CENTER OF MASS  = (-0.000001,  0.000003  0.000002)

-------------
DIPOLE MOMENT
-------------
                                X             Y             Z
Electronic contribution:      0.20726      -0.13245      -0.09399
Nuclear contribution   :     -0.13260       0.47744       0.40295
                        -----------------------------------------
Total Dipole Moment    :      0.07467       0.34499       0.30896
                        -----------------------------------------
Magnitude (a.u.)       :      0.46909
Magnitude (Debye)      :      1.19234



--------------------
Rotational spectrum 
--------------------
 
Rotational constants in cm-1:     0.253087     0.198650     0.114365 
Rotational constants in MHz :  7587.371376  5955.368142  3428.586665 

 Dipole components along the rotational axes: 
x,y,z [a.u.] :     0.049255     0.092940     0.457147 
x,y,z [Debye]:     0.125195     0.236235     1.161976 

 

Timings for individual modules:

Sum of individual times         ...      100.722 sec (=   1.679 min)
GTO integral calculation        ...        0.878 sec (=   0.015 min)   0.9 %
SCF iterations                  ...       25.200 sec (=   0.420 min)  25.0 %
MP2 module                      ...       74.644 sec (=   1.244 min)  74.1 %



                             ****ORCA TERMINATED NORMALLY****
TOTAL RUN TIME: 0 days 0 hours 29 minutes 19 seconds 363 msec
