
                                 *****************
                                 * O   R   C   A *
                                 *****************

           --- An Ab Initio, DFT and Semiempirical electronic structure package ---

                  #######################################################
                  #                        -***-                        #
                  #          Department of theory and spectroscopy      #
                  #               Directorship: Frank Neese             #
                  #        Max Planck Institute fuer Kohlenforschung    #
                  #                Kaiser Wilhelm Platz 1               #
                  #                 D-45470 Muelheim/Ruhr               #
                  #                      Germany                        #
                  #                                                     #
                  #                  All rights reserved                #
                  #                        -***-                        #
                  #######################################################


                         Program Version 4.2.0 -  RELEASE  -


 With contributions from (in alphabetic order):
   Daniel Aravena         : Magnetic Suceptibility
   Michael Atanasov       : Ab Initio Ligand Field Theory (pilot matlab implementation)
   Alexander A. Auer      : GIAO ZORA, VPT2
   Ute Becker             : Parallelization
   Giovanni Bistoni       : ED, misc. LED, open-shell LED, HFLED
   Martin Brehm           : Molecular dynamics
   Dmytro Bykov           : SCF Hessian
   Vijay G. Chilkuri      : MRCI spin determinant printing, contributions to CSF-ICE
   Dipayan Datta          : RHF DLPNO-CCSD density
   Achintya Kumar Dutta   : EOM-CC, STEOM-CC
   Dmitry Ganyushin       : Spin-Orbit,Spin-Spin,Magnetic field MRCI
   Miquel Garcia          : C-PCM Hessian, Gaussian charge scheme
   Yang Guo               : DLPNO-NEVPT2, CIM, IAO-localization
   Andreas Hansen         : Spin unrestricted coupled pair/coupled cluster methods
   Benjamin Helmich-Paris : CASSCF linear response (MC-RPA)
   Lee Huntington         : MR-EOM, pCC
   Robert Izsak           : Overlap fitted RIJCOSX, COSX-SCS-MP3, EOM
   Christian Kollmar      : KDIIS, OOCD, Brueckner-CCSD(T), CCSD density
   Simone Kossmann        : Meta GGA functionals, TD-DFT gradient, OOMP2, MP2 Hessian
   Martin Krupicka        : AUTO-CI
   Lucas Lang             : DCDCAS
   Dagmar Lenk            : GEPOL surface, SMD
   Dimitrios Liakos       : Extrapolation schemes; Compound Job, initial MDCI parallelization
   Dimitrios Manganas     : Further ROCIS development; embedding schemes
   Dimitrios Pantazis     : SARC Basis sets
   Taras Petrenko         : DFT Hessian,TD-DFT gradient, ASA, ECA, R-Raman, ABS, FL, XAS/XES, NRVS
   Peter Pinski           : DLPNO-MP2, DLPNO-MP2 Gradient
   Christoph Reimann      : Effective Core Potentials
   Marius Retegan         : Local ZFS, SOC
   Christoph Riplinger    : Optimizer, TS searches, QM/MM, DLPNO-CCSD(T), (RO)-DLPNO pert. Triples
   Tobias Risthaus        : Range-separated hybrids, TD-DFT gradient, RPA, STAB
   Michael Roemelt        : Original ROCIS implementation
   Masaaki Saitow         : Open-shell DLPNO-CCSD energy and density
   Barbara Sandhoefer     : DKH picture change effects
   Avijit Sen             : IP-ROCIS
   Kantharuban Sivalingam : CASSCF convergence, NEVPT2, FIC-MRCI
   Bernardo de Souza      : ESD, SOC TD-DFT
   Georgi Stoychev        : AutoAux, RI-MP2 NMR
   Willem Van den Heuvel  : Paramagnetic NMR
   Boris Wezisla          : Elementary symmetry handling
   Frank Wennmohs         : Technical directorship


 We gratefully acknowledge several colleagues who have allowed us to
 interface, adapt or use parts of their codes:
   Stefan Grimme, W. Hujo, H. Kruse,             : VdW corrections, initial TS optimization,
                  C. Bannwarth                     DFT functionals, gCP, sTDA/sTD-DF
   Ed Valeev, F. Pavosevic, A. Kumar             : LibInt (2-el integral package), F12 methods
   Garnet Chan, S. Sharma, J. Yang, R. Olivares  : DMRG
   Ulf Ekstrom                                   : XCFun DFT Library
   Mihaly Kallay                                 : mrcc  (arbitrary order and MRCC methods)
   Andreas Klamt, Michael Diedenhofen            : otool_cosmo (COSMO solvation model)
   Jiri Pittner, Ondrej Demel                    : Mk-CCSD
   Frank Weinhold                                : gennbo (NPA and NBO analysis)
   Christopher J. Cramer and Donald G. Truhlar   : smd solvation model
   Lars Goerigk                                  : TD-DFT with DH, B97 family of functionals
   V. Asgeirsson, H. Jonsson                     : NEB implementation
   FAccTs GmbH                                   : IRC, NEB, NEB-TS, Multilevel, MM, QM/MM, CI optimization
   S Lehtola, MJT Oliveira, MAL Marques          : LibXC Library


 Your calculation uses the libint2 library for the computation of 2-el integrals
 For citations please refer to: http://libint.valeyev.net

 Your ORCA version has been built with support for libXC version: 4.2.3
 For citations please refer to: https://tddft.org/programs/libxc/

 This ORCA versions uses:
   CBLAS   interface :  Fast vector & matrix operations
   LAPACKE interface :  Fast linear algebra routines
   SCALAPACK package :  Parallel linear algebra routines


----- Orbital basis set information -----
Your calculation utilizes the basis: aug-cc-pVTZ 
    H, B-Ne : Obtained from the ccRepo (grant-hill.group.shef.ac.uk/ccrepo) Feb. 2017
              R. A. Kendall, T. H. Dunning, Jr., R. J. Harrison, J. Chem. Phys. 96, 6796 (1992)
         He : Obtained from the ccRepo (grant-hill.group.shef.ac.uk/ccrepo) Feb. 2017
              D. E. Woon, T. H. Dunning, Jr., J. Chem. Phys. 100, 2975 (1994)
  Li-Be, Na : Obtained from the ccRepo (grant-hill.group.shef.ac.uk/ccrepo) Feb. 2017
              B. P. Prascher, D. E. Woon, K. A. Peterson, T. H. Dunning, Jr., A. K. Wilson, Theor. Chem. Acc. 128, 69 (2011)
         Mg : Obtained from the Peterson Research Group Website (tyr0.chem.wsu.edu/~kipeters) Feb. 2017
              B. P. Prascher, D. E. Woon, K. A. Peterson, T. H. Dunning, Jr., A. K. Wilson, Theor. Chem. Acc. 128, 69 (2011)
      Al-Ar : Obtained from the ccRepo (grant-hill.group.shef.ac.uk/ccrepo) Feb. 2017
              D. E. Woon, T. H. Dunning, Jr., J. Chem. Phys. 98, 1358 (1993)
      Sc-Zn : Obtained from the ccRepo (grant-hill.group.shef.ac.uk/ccrepo) Feb. 2017
              N. B. Balabanov, K. A. Peterson, J. Chem. Phys. 123, 064107 (2005)
              N. B. Balabanov, K. A. Peterson, J. Chem. Phys. 125, 074110 (2006)
      Ga-Kr : Obtained from the ccRepo (grant-hill.group.shef.ac.uk/ccrepo) Feb. 2017
              A. K. Wilson, D. E. Woon, K. A. Peterson, T. H. Dunning, Jr., J. Chem. Phys. 110, 7667 (1999)
     Ag, Au : Obtained from the Peterson Research Group Website (tyr0.chem.wsu.edu/~kipeters) Feb. 2017
              K. A. Peterson, C. Puzzarini, Theor. Chem. Acc. 114, 283 (2005)

================================================================================
                                        WARNINGS
                       Please study these warnings very carefully!
================================================================================


WARNING: The frozen-core approximation for MP2-gradient calculations is turned on by default.

INFO   : the flag for use of LIBINT has been found!

----- Orbital basis set information -----
Your calculation utilizes the basis: aug-cc-pVTZ 
    H, B-Ne : Obtained from the ccRepo (grant-hill.group.shef.ac.uk/ccrepo) Feb. 2017
              R. A. Kendall, T. H. Dunning, Jr., R. J. Harrison, J. Chem. Phys. 96, 6796 (1992)
         He : Obtained from the ccRepo (grant-hill.group.shef.ac.uk/ccrepo) Feb. 2017
              D. E. Woon, T. H. Dunning, Jr., J. Chem. Phys. 100, 2975 (1994)
  Li-Be, Na : Obtained from the ccRepo (grant-hill.group.shef.ac.uk/ccrepo) Feb. 2017
              B. P. Prascher, D. E. Woon, K. A. Peterson, T. H. Dunning, Jr., A. K. Wilson, Theor. Chem. Acc. 128, 69 (2011)
         Mg : Obtained from the Peterson Research Group Website (tyr0.chem.wsu.edu/~kipeters) Feb. 2017
              B. P. Prascher, D. E. Woon, K. A. Peterson, T. H. Dunning, Jr., A. K. Wilson, Theor. Chem. Acc. 128, 69 (2011)
      Al-Ar : Obtained from the ccRepo (grant-hill.group.shef.ac.uk/ccrepo) Feb. 2017
              D. E. Woon, T. H. Dunning, Jr., J. Chem. Phys. 98, 1358 (1993)
      Sc-Zn : Obtained from the ccRepo (grant-hill.group.shef.ac.uk/ccrepo) Feb. 2017
              N. B. Balabanov, K. A. Peterson, J. Chem. Phys. 123, 064107 (2005)
              N. B. Balabanov, K. A. Peterson, J. Chem. Phys. 125, 074110 (2006)
      Ga-Kr : Obtained from the ccRepo (grant-hill.group.shef.ac.uk/ccrepo) Feb. 2017
              A. K. Wilson, D. E. Woon, K. A. Peterson, T. H. Dunning, Jr., J. Chem. Phys. 110, 7667 (1999)
     Ag, Au : Obtained from the Peterson Research Group Website (tyr0.chem.wsu.edu/~kipeters) Feb. 2017
              K. A. Peterson, C. Puzzarini, Theor. Chem. Acc. 114, 283 (2005)

================================================================================
                                        WARNINGS
                       Please study these warnings very carefully!
================================================================================


WARNING: The frozen-core approximation for MP2-gradient calculations is turned on by default.

INFO   : the flag for use of LIBINT has been found!

----- Orbital basis set information -----
Your calculation utilizes the basis: aug-cc-pVTZ 
    H, B-Ne : Obtained from the ccRepo (grant-hill.group.shef.ac.uk/ccrepo) Feb. 2017
              R. A. Kendall, T. H. Dunning, Jr., R. J. Harrison, J. Chem. Phys. 96, 6796 (1992)
         He : Obtained from the ccRepo (grant-hill.group.shef.ac.uk/ccrepo) Feb. 2017
              D. E. Woon, T. H. Dunning, Jr., J. Chem. Phys. 100, 2975 (1994)
  Li-Be, Na : Obtained from the ccRepo (grant-hill.group.shef.ac.uk/ccrepo) Feb. 2017
              B. P. Prascher, D. E. Woon, K. A. Peterson, T. H. Dunning, Jr., A. K. Wilson, Theor. Chem. Acc. 128, 69 (2011)
         Mg : Obtained from the Peterson Research Group Website (tyr0.chem.wsu.edu/~kipeters) Feb. 2017
              B. P. Prascher, D. E. Woon, K. A. Peterson, T. H. Dunning, Jr., A. K. Wilson, Theor. Chem. Acc. 128, 69 (2011)
      Al-Ar : Obtained from the ccRepo (grant-hill.group.shef.ac.uk/ccrepo) Feb. 2017
              D. E. Woon, T. H. Dunning, Jr., J. Chem. Phys. 98, 1358 (1993)
      Sc-Zn : Obtained from the ccRepo (grant-hill.group.shef.ac.uk/ccrepo) Feb. 2017
              N. B. Balabanov, K. A. Peterson, J. Chem. Phys. 123, 064107 (2005)
              N. B. Balabanov, K. A. Peterson, J. Chem. Phys. 125, 074110 (2006)
      Ga-Kr : Obtained from the ccRepo (grant-hill.group.shef.ac.uk/ccrepo) Feb. 2017
              A. K. Wilson, D. E. Woon, K. A. Peterson, T. H. Dunning, Jr., J. Chem. Phys. 110, 7667 (1999)
     Ag, Au : Obtained from the Peterson Research Group Website (tyr0.chem.wsu.edu/~kipeters) Feb. 2017
              K. A. Peterson, C. Puzzarini, Theor. Chem. Acc. 114, 283 (2005)

================================================================================
                                        WARNINGS
                       Please study these warnings very carefully!
================================================================================


WARNING: The frozen-core approximation for MP2-gradient calculations is turned on by default.

INFO   : the flag for use of LIBINT has been found!

----- Orbital basis set information -----
Your calculation utilizes the basis: aug-cc-pVTZ 
    H, B-Ne : Obtained from the ccRepo (grant-hill.group.shef.ac.uk/ccrepo) Feb. 2017
              R. A. Kendall, T. H. Dunning, Jr., R. J. Harrison, J. Chem. Phys. 96, 6796 (1992)
         He : Obtained from the ccRepo (grant-hill.group.shef.ac.uk/ccrepo) Feb. 2017
              D. E. Woon, T. H. Dunning, Jr., J. Chem. Phys. 100, 2975 (1994)
  Li-Be, Na : Obtained from the ccRepo (grant-hill.group.shef.ac.uk/ccrepo) Feb. 2017
              B. P. Prascher, D. E. Woon, K. A. Peterson, T. H. Dunning, Jr., A. K. Wilson, Theor. Chem. Acc. 128, 69 (2011)
         Mg : Obtained from the Peterson Research Group Website (tyr0.chem.wsu.edu/~kipeters) Feb. 2017
              B. P. Prascher, D. E. Woon, K. A. Peterson, T. H. Dunning, Jr., A. K. Wilson, Theor. Chem. Acc. 128, 69 (2011)
      Al-Ar : Obtained from the ccRepo (grant-hill.group.shef.ac.uk/ccrepo) Feb. 2017
              D. E. Woon, T. H. Dunning, Jr., J. Chem. Phys. 98, 1358 (1993)
      Sc-Zn : Obtained from the ccRepo (grant-hill.group.shef.ac.uk/ccrepo) Feb. 2017
              N. B. Balabanov, K. A. Peterson, J. Chem. Phys. 123, 064107 (2005)
              N. B. Balabanov, K. A. Peterson, J. Chem. Phys. 125, 074110 (2006)
      Ga-Kr : Obtained from the ccRepo (grant-hill.group.shef.ac.uk/ccrepo) Feb. 2017
              A. K. Wilson, D. E. Woon, K. A. Peterson, T. H. Dunning, Jr., J. Chem. Phys. 110, 7667 (1999)
     Ag, Au : Obtained from the Peterson Research Group Website (tyr0.chem.wsu.edu/~kipeters) Feb. 2017
              K. A. Peterson, C. Puzzarini, Theor. Chem. Acc. 114, 283 (2005)

================================================================================
                                        WARNINGS
                       Please study these warnings very carefully!
================================================================================


WARNING: The frozen-core approximation for MP2-gradient calculations is turned on by default.

INFO   : the flag for use of LIBINT has been found!

----- Orbital basis set information -----
Your calculation utilizes the basis: aug-cc-pVTZ 
    H, B-Ne : Obtained from the ccRepo (grant-hill.group.shef.ac.uk/ccrepo) Feb. 2017
              R. A. Kendall, T. H. Dunning, Jr., R. J. Harrison, J. Chem. Phys. 96, 6796 (1992)
         He : Obtained from the ccRepo (grant-hill.group.shef.ac.uk/ccrepo) Feb. 2017
              D. E. Woon, T. H. Dunning, Jr., J. Chem. Phys. 100, 2975 (1994)
  Li-Be, Na : Obtained from the ccRepo (grant-hill.group.shef.ac.uk/ccrepo) Feb. 2017
              B. P. Prascher, D. E. Woon, K. A. Peterson, T. H. Dunning, Jr., A. K. Wilson, Theor. Chem. Acc. 128, 69 (2011)
         Mg : Obtained from the Peterson Research Group Website (tyr0.chem.wsu.edu/~kipeters) Feb. 2017
              B. P. Prascher, D. E. Woon, K. A. Peterson, T. H. Dunning, Jr., A. K. Wilson, Theor. Chem. Acc. 128, 69 (2011)
      Al-Ar : Obtained from the ccRepo (grant-hill.group.shef.ac.uk/ccrepo) Feb. 2017
              D. E. Woon, T. H. Dunning, Jr., J. Chem. Phys. 98, 1358 (1993)
      Sc-Zn : Obtained from the ccRepo (grant-hill.group.shef.ac.uk/ccrepo) Feb. 2017
              N. B. Balabanov, K. A. Peterson, J. Chem. Phys. 123, 064107 (2005)
              N. B. Balabanov, K. A. Peterson, J. Chem. Phys. 125, 074110 (2006)
      Ga-Kr : Obtained from the ccRepo (grant-hill.group.shef.ac.uk/ccrepo) Feb. 2017
              A. K. Wilson, D. E. Woon, K. A. Peterson, T. H. Dunning, Jr., J. Chem. Phys. 110, 7667 (1999)
     Ag, Au : Obtained from the Peterson Research Group Website (tyr0.chem.wsu.edu/~kipeters) Feb. 2017
              K. A. Peterson, C. Puzzarini, Theor. Chem. Acc. 114, 283 (2005)

================================================================================
                                        WARNINGS
                       Please study these warnings very carefully!
================================================================================


WARNING: The frozen-core approximation for MP2-gradient calculations is turned on by default.

INFO   : the flag for use of LIBINT has been found!

----- Orbital basis set information -----
Your calculation utilizes the basis: aug-cc-pVTZ 
    H, B-Ne : Obtained from the ccRepo (grant-hill.group.shef.ac.uk/ccrepo) Feb. 2017
              R. A. Kendall, T. H. Dunning, Jr., R. J. Harrison, J. Chem. Phys. 96, 6796 (1992)
         He : Obtained from the ccRepo (grant-hill.group.shef.ac.uk/ccrepo) Feb. 2017
              D. E. Woon, T. H. Dunning, Jr., J. Chem. Phys. 100, 2975 (1994)
  Li-Be, Na : Obtained from the ccRepo (grant-hill.group.shef.ac.uk/ccrepo) Feb. 2017
              B. P. Prascher, D. E. Woon, K. A. Peterson, T. H. Dunning, Jr., A. K. Wilson, Theor. Chem. Acc. 128, 69 (2011)
         Mg : Obtained from the Peterson Research Group Website (tyr0.chem.wsu.edu/~kipeters) Feb. 2017
              B. P. Prascher, D. E. Woon, K. A. Peterson, T. H. Dunning, Jr., A. K. Wilson, Theor. Chem. Acc. 128, 69 (2011)
      Al-Ar : Obtained from the ccRepo (grant-hill.group.shef.ac.uk/ccrepo) Feb. 2017
              D. E. Woon, T. H. Dunning, Jr., J. Chem. Phys. 98, 1358 (1993)
      Sc-Zn : Obtained from the ccRepo (grant-hill.group.shef.ac.uk/ccrepo) Feb. 2017
              N. B. Balabanov, K. A. Peterson, J. Chem. Phys. 123, 064107 (2005)
              N. B. Balabanov, K. A. Peterson, J. Chem. Phys. 125, 074110 (2006)
      Ga-Kr : Obtained from the ccRepo (grant-hill.group.shef.ac.uk/ccrepo) Feb. 2017
              A. K. Wilson, D. E. Woon, K. A. Peterson, T. H. Dunning, Jr., J. Chem. Phys. 110, 7667 (1999)
     Ag, Au : Obtained from the Peterson Research Group Website (tyr0.chem.wsu.edu/~kipeters) Feb. 2017
              K. A. Peterson, C. Puzzarini, Theor. Chem. Acc. 114, 283 (2005)

================================================================================
                                        WARNINGS
                       Please study these warnings very carefully!
================================================================================


WARNING: The frozen-core approximation for MP2-gradient calculations is turned on by default.

INFO   : the flag for use of LIBINT has been found!

----- Orbital basis set information -----
Your calculation utilizes the basis: aug-cc-pVTZ 
    H, B-Ne : Obtained from the ccRepo (grant-hill.group.shef.ac.uk/ccrepo) Feb. 2017
              R. A. Kendall, T. H. Dunning, Jr., R. J. Harrison, J. Chem. Phys. 96, 6796 (1992)
         He : Obtained from the ccRepo (grant-hill.group.shef.ac.uk/ccrepo) Feb. 2017
              D. E. Woon, T. H. Dunning, Jr., J. Chem. Phys. 100, 2975 (1994)
  Li-Be, Na : Obtained from the ccRepo (grant-hill.group.shef.ac.uk/ccrepo) Feb. 2017
              B. P. Prascher, D. E. Woon, K. A. Peterson, T. H. Dunning, Jr., A. K. Wilson, Theor. Chem. Acc. 128, 69 (2011)
         Mg : Obtained from the Peterson Research Group Website (tyr0.chem.wsu.edu/~kipeters) Feb. 2017
              B. P. Prascher, D. E. Woon, K. A. Peterson, T. H. Dunning, Jr., A. K. Wilson, Theor. Chem. Acc. 128, 69 (2011)
      Al-Ar : Obtained from the ccRepo (grant-hill.group.shef.ac.uk/ccrepo) Feb. 2017
              D. E. Woon, T. H. Dunning, Jr., J. Chem. Phys. 98, 1358 (1993)
      Sc-Zn : Obtained from the ccRepo (grant-hill.group.shef.ac.uk/ccrepo) Feb. 2017
              N. B. Balabanov, K. A. Peterson, J. Chem. Phys. 123, 064107 (2005)
              N. B. Balabanov, K. A. Peterson, J. Chem. Phys. 125, 074110 (2006)
      Ga-Kr : Obtained from the ccRepo (grant-hill.group.shef.ac.uk/ccrepo) Feb. 2017
              A. K. Wilson, D. E. Woon, K. A. Peterson, T. H. Dunning, Jr., J. Chem. Phys. 110, 7667 (1999)
     Ag, Au : Obtained from the Peterson Research Group Website (tyr0.chem.wsu.edu/~kipeters) Feb. 2017
              K. A. Peterson, C. Puzzarini, Theor. Chem. Acc. 114, 283 (2005)

================================================================================
                                        WARNINGS
                       Please study these warnings very carefully!
================================================================================


WARNING: The frozen-core approximation for MP2-gradient calculations is turned on by default.

INFO   : the flag for use of LIBINT has been found!

----- Orbital basis set information -----
Your calculation utilizes the basis: aug-cc-pVTZ 
    H, B-Ne : Obtained from the ccRepo (grant-hill.group.shef.ac.uk/ccrepo) Feb. 2017
              R. A. Kendall, T. H. Dunning, Jr., R. J. Harrison, J. Chem. Phys. 96, 6796 (1992)
         He : Obtained from the ccRepo (grant-hill.group.shef.ac.uk/ccrepo) Feb. 2017
              D. E. Woon, T. H. Dunning, Jr., J. Chem. Phys. 100, 2975 (1994)
  Li-Be, Na : Obtained from the ccRepo (grant-hill.group.shef.ac.uk/ccrepo) Feb. 2017
              B. P. Prascher, D. E. Woon, K. A. Peterson, T. H. Dunning, Jr., A. K. Wilson, Theor. Chem. Acc. 128, 69 (2011)
         Mg : Obtained from the Peterson Research Group Website (tyr0.chem.wsu.edu/~kipeters) Feb. 2017
              B. P. Prascher, D. E. Woon, K. A. Peterson, T. H. Dunning, Jr., A. K. Wilson, Theor. Chem. Acc. 128, 69 (2011)
      Al-Ar : Obtained from the ccRepo (grant-hill.group.shef.ac.uk/ccrepo) Feb. 2017
              D. E. Woon, T. H. Dunning, Jr., J. Chem. Phys. 98, 1358 (1993)
      Sc-Zn : Obtained from the ccRepo (grant-hill.group.shef.ac.uk/ccrepo) Feb. 2017
              N. B. Balabanov, K. A. Peterson, J. Chem. Phys. 123, 064107 (2005)
              N. B. Balabanov, K. A. Peterson, J. Chem. Phys. 125, 074110 (2006)
      Ga-Kr : Obtained from the ccRepo (grant-hill.group.shef.ac.uk/ccrepo) Feb. 2017
              A. K. Wilson, D. E. Woon, K. A. Peterson, T. H. Dunning, Jr., J. Chem. Phys. 110, 7667 (1999)
     Ag, Au : Obtained from the Peterson Research Group Website (tyr0.chem.wsu.edu/~kipeters) Feb. 2017
              K. A. Peterson, C. Puzzarini, Theor. Chem. Acc. 114, 283 (2005)

================================================================================
                                        WARNINGS
                       Please study these warnings very carefully!
================================================================================


WARNING: The frozen-core approximation for MP2-gradient calculations is turned on by default.

INFO   : the flag for use of LIBINT has been found!

----- Orbital basis set information -----
Your calculation utilizes the basis: aug-cc-pVTZ 
    H, B-Ne : Obtained from the ccRepo (grant-hill.group.shef.ac.uk/ccrepo) Feb. 2017
              R. A. Kendall, T. H. Dunning, Jr., R. J. Harrison, J. Chem. Phys. 96, 6796 (1992)
         He : Obtained from the ccRepo (grant-hill.group.shef.ac.uk/ccrepo) Feb. 2017
              D. E. Woon, T. H. Dunning, Jr., J. Chem. Phys. 100, 2975 (1994)
  Li-Be, Na : Obtained from the ccRepo (grant-hill.group.shef.ac.uk/ccrepo) Feb. 2017
              B. P. Prascher, D. E. Woon, K. A. Peterson, T. H. Dunning, Jr., A. K. Wilson, Theor. Chem. Acc. 128, 69 (2011)
         Mg : Obtained from the Peterson Research Group Website (tyr0.chem.wsu.edu/~kipeters) Feb. 2017
              B. P. Prascher, D. E. Woon, K. A. Peterson, T. H. Dunning, Jr., A. K. Wilson, Theor. Chem. Acc. 128, 69 (2011)
      Al-Ar : Obtained from the ccRepo (grant-hill.group.shef.ac.uk/ccrepo) Feb. 2017
              D. E. Woon, T. H. Dunning, Jr., J. Chem. Phys. 98, 1358 (1993)
      Sc-Zn : Obtained from the ccRepo (grant-hill.group.shef.ac.uk/ccrepo) Feb. 2017
              N. B. Balabanov, K. A. Peterson, J. Chem. Phys. 123, 064107 (2005)
              N. B. Balabanov, K. A. Peterson, J. Chem. Phys. 125, 074110 (2006)
      Ga-Kr : Obtained from the ccRepo (grant-hill.group.shef.ac.uk/ccrepo) Feb. 2017
              A. K. Wilson, D. E. Woon, K. A. Peterson, T. H. Dunning, Jr., J. Chem. Phys. 110, 7667 (1999)
     Ag, Au : Obtained from the Peterson Research Group Website (tyr0.chem.wsu.edu/~kipeters) Feb. 2017
              K. A. Peterson, C. Puzzarini, Theor. Chem. Acc. 114, 283 (2005)

================================================================================
                                        WARNINGS
                       Please study these warnings very carefully!
================================================================================


WARNING: The frozen-core approximation for MP2-gradient calculations is turned on by default.

INFO   : the flag for use of LIBINT has been found!

----- Orbital basis set information -----
Your calculation utilizes the basis: aug-cc-pVTZ 
    H, B-Ne : Obtained from the ccRepo (grant-hill.group.shef.ac.uk/ccrepo) Feb. 2017
              R. A. Kendall, T. H. Dunning, Jr., R. J. Harrison, J. Chem. Phys. 96, 6796 (1992)
         He : Obtained from the ccRepo (grant-hill.group.shef.ac.uk/ccrepo) Feb. 2017
              D. E. Woon, T. H. Dunning, Jr., J. Chem. Phys. 100, 2975 (1994)
  Li-Be, Na : Obtained from the ccRepo (grant-hill.group.shef.ac.uk/ccrepo) Feb. 2017
              B. P. Prascher, D. E. Woon, K. A. Peterson, T. H. Dunning, Jr., A. K. Wilson, Theor. Chem. Acc. 128, 69 (2011)
         Mg : Obtained from the Peterson Research Group Website (tyr0.chem.wsu.edu/~kipeters) Feb. 2017
              B. P. Prascher, D. E. Woon, K. A. Peterson, T. H. Dunning, Jr., A. K. Wilson, Theor. Chem. Acc. 128, 69 (2011)
      Al-Ar : Obtained from the ccRepo (grant-hill.group.shef.ac.uk/ccrepo) Feb. 2017
              D. E. Woon, T. H. Dunning, Jr., J. Chem. Phys. 98, 1358 (1993)
      Sc-Zn : Obtained from the ccRepo (grant-hill.group.shef.ac.uk/ccrepo) Feb. 2017
              N. B. Balabanov, K. A. Peterson, J. Chem. Phys. 123, 064107 (2005)
              N. B. Balabanov, K. A. Peterson, J. Chem. Phys. 125, 074110 (2006)
      Ga-Kr : Obtained from the ccRepo (grant-hill.group.shef.ac.uk/ccrepo) Feb. 2017
              A. K. Wilson, D. E. Woon, K. A. Peterson, T. H. Dunning, Jr., J. Chem. Phys. 110, 7667 (1999)
     Ag, Au : Obtained from the Peterson Research Group Website (tyr0.chem.wsu.edu/~kipeters) Feb. 2017
              K. A. Peterson, C. Puzzarini, Theor. Chem. Acc. 114, 283 (2005)

================================================================================
                                        WARNINGS
                       Please study these warnings very carefully!
================================================================================


WARNING: The frozen-core approximation for MP2-gradient calculations is turned on by default.

INFO   : the flag for use of LIBINT has been found!

----- Orbital basis set information -----
Your calculation utilizes the basis: aug-cc-pVTZ 
    H, B-Ne : Obtained from the ccRepo (grant-hill.group.shef.ac.uk/ccrepo) Feb. 2017
              R. A. Kendall, T. H. Dunning, Jr., R. J. Harrison, J. Chem. Phys. 96, 6796 (1992)
         He : Obtained from the ccRepo (grant-hill.group.shef.ac.uk/ccrepo) Feb. 2017
              D. E. Woon, T. H. Dunning, Jr., J. Chem. Phys. 100, 2975 (1994)
  Li-Be, Na : Obtained from the ccRepo (grant-hill.group.shef.ac.uk/ccrepo) Feb. 2017
              B. P. Prascher, D. E. Woon, K. A. Peterson, T. H. Dunning, Jr., A. K. Wilson, Theor. Chem. Acc. 128, 69 (2011)
         Mg : Obtained from the Peterson Research Group Website (tyr0.chem.wsu.edu/~kipeters) Feb. 2017
              B. P. Prascher, D. E. Woon, K. A. Peterson, T. H. Dunning, Jr., A. K. Wilson, Theor. Chem. Acc. 128, 69 (2011)
      Al-Ar : Obtained from the ccRepo (grant-hill.group.shef.ac.uk/ccrepo) Feb. 2017
              D. E. Woon, T. H. Dunning, Jr., J. Chem. Phys. 98, 1358 (1993)
      Sc-Zn : Obtained from the ccRepo (grant-hill.group.shef.ac.uk/ccrepo) Feb. 2017
              N. B. Balabanov, K. A. Peterson, J. Chem. Phys. 123, 064107 (2005)
              N. B. Balabanov, K. A. Peterson, J. Chem. Phys. 125, 074110 (2006)
      Ga-Kr : Obtained from the ccRepo (grant-hill.group.shef.ac.uk/ccrepo) Feb. 2017
              A. K. Wilson, D. E. Woon, K. A. Peterson, T. H. Dunning, Jr., J. Chem. Phys. 110, 7667 (1999)
     Ag, Au : Obtained from the Peterson Research Group Website (tyr0.chem.wsu.edu/~kipeters) Feb. 2017
              K. A. Peterson, C. Puzzarini, Theor. Chem. Acc. 114, 283 (2005)

================================================================================
                                        WARNINGS
                       Please study these warnings very carefully!
================================================================================


WARNING: The frozen-core approximation for MP2-gradient calculations is turned on by default.

INFO   : the flag for use of LIBINT has been found!

----- Orbital basis set information -----
Your calculation utilizes the basis: aug-cc-pVTZ 
    H, B-Ne : Obtained from the ccRepo (grant-hill.group.shef.ac.uk/ccrepo) Feb. 2017
              R. A. Kendall, T. H. Dunning, Jr., R. J. Harrison, J. Chem. Phys. 96, 6796 (1992)
         He : Obtained from the ccRepo (grant-hill.group.shef.ac.uk/ccrepo) Feb. 2017
              D. E. Woon, T. H. Dunning, Jr., J. Chem. Phys. 100, 2975 (1994)
  Li-Be, Na : Obtained from the ccRepo (grant-hill.group.shef.ac.uk/ccrepo) Feb. 2017
              B. P. Prascher, D. E. Woon, K. A. Peterson, T. H. Dunning, Jr., A. K. Wilson, Theor. Chem. Acc. 128, 69 (2011)
         Mg : Obtained from the Peterson Research Group Website (tyr0.chem.wsu.edu/~kipeters) Feb. 2017
              B. P. Prascher, D. E. Woon, K. A. Peterson, T. H. Dunning, Jr., A. K. Wilson, Theor. Chem. Acc. 128, 69 (2011)
      Al-Ar : Obtained from the ccRepo (grant-hill.group.shef.ac.uk/ccrepo) Feb. 2017
              D. E. Woon, T. H. Dunning, Jr., J. Chem. Phys. 98, 1358 (1993)
      Sc-Zn : Obtained from the ccRepo (grant-hill.group.shef.ac.uk/ccrepo) Feb. 2017
              N. B. Balabanov, K. A. Peterson, J. Chem. Phys. 123, 064107 (2005)
              N. B. Balabanov, K. A. Peterson, J. Chem. Phys. 125, 074110 (2006)
      Ga-Kr : Obtained from the ccRepo (grant-hill.group.shef.ac.uk/ccrepo) Feb. 2017
              A. K. Wilson, D. E. Woon, K. A. Peterson, T. H. Dunning, Jr., J. Chem. Phys. 110, 7667 (1999)
     Ag, Au : Obtained from the Peterson Research Group Website (tyr0.chem.wsu.edu/~kipeters) Feb. 2017
              K. A. Peterson, C. Puzzarini, Theor. Chem. Acc. 114, 283 (2005)

================================================================================
                                        WARNINGS
                       Please study these warnings very carefully!
================================================================================


WARNING: The frozen-core approximation for MP2-gradient calculations is turned on by default.

INFO   : the flag for use of LIBINT has been found!

================================================================================
                                       INPUT FILE
================================================================================
NAME = 4h2o.temelso.etal.dset.3h2o-orca.engrad-mp2.augccpvtz.inp
|  1> # 4h2o.temelso.etal.dset.3h2o-orca.engrad-mp2.augccpvtz
|  2> ! MP2 aug-cc-pVTZ EnGrad TightSCF FrozenCore
|  3> 
|  4> %pal
|  5>     nprocs 12
|  6> end
|  7> 
|  8> %maxcore 8000
|  9> 
| 10> %scf
| 11>     ConvForced true
| 12> end
| 13> 
| 14> *xyz 0 1
| 15> O  -1.775038926  -0.918892747  -0.364922679
| 16> H  -2.193238926  -1.133492747  -1.207722679
| 17> H  -1.938238926   0.044607253  -0.241422679
| 18> O   0.950361074  -0.880492747  -0.009522679
| 19> H  -0.007238926  -1.019292747  -0.194222679
| 20> H   1.162261074  -1.517592747   0.683677321
| 21> O   0.854161074   1.832007253   0.424477321
| 22> H   1.012361074   0.864107253   0.332377321
| 23> H   1.496061074   2.243807253  -0.166922679
| 24> *
| 25> 
| 26> 
| 27> $new_job
| 28> 
| 29> # 4h2o.temelso.etal.dset.3h2o-orca.engrad-mp2.augccpvtz
| 30> ! MP2 aug-cc-pVTZ EnGrad TightSCF FrozenCore
| 31> 
| 32> %pal
| 33>     nprocs 12
| 34> end
| 35> 
| 36> %maxcore 8000
| 37> 
| 38> %scf
| 39>     ConvForced true
| 40> end
| 41> 
| 42> *xyz 0 1
| 43> O  -0.868944166  -0.933924023  -0.227916621
| 44> H  -1.287144166  -1.148524023  -1.070716621
| 45> H  -1.032144166   0.029575977  -0.104416621
| 46> O   1.856455834  -0.895524023   0.127483379
| 47> H   0.898855834  -1.034324023  -0.057216621
| 48> H   2.068355834  -1.532624023   0.820683379
| 49> O  -0.942744166   1.798375977   0.062183379
| 50> H   0.019655834   1.941375977   0.215883379
| 51> H  -1.378244166   2.237775977   0.802983379
| 52> *
| 53> 
| 54> 
| 55> $new_job
| 56> 
| 57> # 4h2o.temelso.etal.dset.3h2o-orca.engrad-mp2.augccpvtz
| 58> ! MP2 aug-cc-pVTZ EnGrad TightSCF FrozenCore
| 59> 
| 60> %pal
| 61>     nprocs 12
| 62> end
| 63> 
| 64> %maxcore 8000
| 65> 
| 66> %scf
| 67>     ConvForced true
| 68> end
| 69> 
| 70> *xyz 0 1
| 71> O  -0.865704295  -1.842189622  -0.350354319
| 72> H  -1.283904295  -2.056789622  -1.193154319
| 73> H  -1.028904295  -0.878689622  -0.226854319
| 74> O   1.763495705   0.908710378   0.439045681
| 75> H   1.921695705  -0.059189622   0.346945681
| 76> H   2.405395705   1.320510378  -0.152354319
| 77> O  -0.939504295   0.890110378  -0.060254319
| 78> H   0.022895705   1.033110378   0.093445681
| 79> H  -1.375004295   1.329510378   0.680545681
| 80> *
| 81> 
| 82> 
| 83> $new_job
| 84> 
| 85> # 4h2o.temelso.etal.dset.3h2o-orca.engrad-mp2.augccpvtz
| 86> ! MP2 aug-cc-pVTZ EnGrad TightSCF FrozenCore
| 87> 
| 88> %pal
| 89>     nprocs 12
| 90> end
| 91> 
| 92> %maxcore 8000
| 93> 
| 94> %scf
| 95>     ConvForced true
| 96> end
| 97> 
| 98> *xyz 0 1
| 99> O   0.954292981  -1.788154445  -0.136317570
|100> H  -0.003307019  -1.926954445  -0.321017570
|101> H   1.166192981  -2.425254445   0.556882430
|102> O   0.858092981   0.924345555   0.297682430
|103> H   1.016292981  -0.043554445   0.205582430
|104> H   1.499992981   1.336145555  -0.293717570
|105> O  -1.844907019   0.905745555  -0.201617570
|106> H  -0.882507019   1.048745555  -0.047917570
|107> H  -2.280407019   1.345145555   0.539182430
|108> *
|109> 
|110> 
|111> $new_job
|112> 
|113> # 4h2o.temelso.etal.dset.3h2o-orca.engrad-mp2.augccpvtz
|114> ! MP2 aug-cc-pVTZ EnGrad TightSCF FrozenCore
|115> 
|116> %pal
|117>     nprocs 12
|118> end
|119> 
|120> %maxcore 8000
|121> 
|122> %scf
|123>     ConvForced true
|124> end
|125> 
|126> *xyz 0 1
|127> O   0.943417578  -1.776026138  -0.299346069
|128> H   1.200517578  -2.442726138   0.349153931
|129> H  -0.018082422  -1.923226138  -0.450346069
|130> O   0.863917578   0.881773862   0.397953931
|131> H   1.540217578   1.372373862  -0.084446069
|132> H   1.020917578  -0.062726138   0.166253931
|133> O  -1.853982422   0.919673862  -0.058646069
|134> H  -0.892482422   1.066873862   0.092753931
|135> H  -2.110582422   1.585873862  -0.707746069
|136> *
|137> 
|138> 
|139> $new_job
|140> 
|141> # 4h2o.temelso.etal.dset.3h2o-orca.engrad-mp2.augccpvtz
|142> ! MP2 aug-cc-pVTZ EnGrad TightSCF FrozenCore
|143> 
|144> %pal
|145>     nprocs 12
|146> end
|147> 
|148> %maxcore 8000
|149> 
|150> %scf
|151>     ConvForced true
|152> end
|153> 
|154> *xyz 0 1
|155> O   0.945661852  -0.883290547  -0.089918403
|156> H   1.202761852  -1.549990547   0.558581597
|157> H  -0.015838148  -1.030490547  -0.240918403
|158> O   0.866161852   1.774509453   0.607381597
|159> H   1.542461852   2.265109453   0.124981597
|160> H   1.023161852   0.830009453   0.375681597
|161> O  -1.772438148  -0.845690547  -0.545318403
|162> H  -1.929338148   0.098809453  -0.313918403
|163> H  -2.448438148  -1.336190547  -0.062218403
|164> *
|165> 
|166> 
|167> $new_job
|168> 
|169> # 4h2o.temelso.etal.dset.3h2o-orca.engrad-mp2.augccpvtz
|170> ! MP2 aug-cc-pVTZ EnGrad TightSCF FrozenCore
|171> 
|172> %pal
|173>     nprocs 12
|174> end
|175> 
|176> %maxcore 8000
|177> 
|178> %scf
|179>     ConvForced true
|180> end
|181> 
|182> *xyz 0 1
|183> O   1.854022981  -0.919557078   0.058246069
|184> H   2.111122981  -1.586257078   0.706746069
|185> H   0.892522981  -1.066757078  -0.092753931
|186> O  -0.943377019   1.776142922   0.298946069
|187> H   0.018122981   1.923342922   0.450346069
|188> H  -1.199977019   2.442342922  -0.350153931
|189> O  -0.864077019  -0.881957078  -0.397153931
|190> H  -1.020977019   0.062542922  -0.165753931
|191> H  -1.540077019  -1.372457078   0.085946069
|192> *
|193> 
|194> 
|195> $new_job
|196> 
|197> # 4h2o.temelso.etal.dset.3h2o-orca.engrad-mp2.augccpvtz
|198> ! MP2 aug-cc-pVTZ EnGrad TightSCF FrozenCore
|199> 
|200> %pal
|201>     nprocs 12
|202> end
|203> 
|204> %maxcore 8000
|205> 
|206> %scf
|207>     ConvForced true
|208> end
|209> 
|210> *xyz 0 1
|211> O   1.772347239   0.845596141   0.545707214
|212> H   2.448647239   1.336196141   0.063307214
|213> H   1.929347239  -0.098903859   0.314007214
|214> O  -0.945552761   0.883496141   0.089107214
|215> H   0.015947239   1.030696141   0.240507214
|216> H  -1.202152761   1.549696141  -0.559992786
|217> O  -0.866252761  -1.774603859  -0.606992786
|218> H  -1.023152761  -0.830103859  -0.375592786
|219> H  -1.542252761  -2.265103859  -0.123892786
|220> *
|221> 
|222> 
|223> $new_job
|224> 
|225> # 4h2o.temelso.etal.dset.3h2o-orca.engrad-mp2.augccpvtz
|226> ! MP2 aug-cc-pVTZ EnGrad TightSCF FrozenCore
|227> 
|228> %pal
|229>     nprocs 12
|230> end
|231> 
|232> %maxcore 8000
|233> 
|234> %scf
|235>     ConvForced true
|236> end
|237> 
|238> *xyz 0 1
|239> O   1.659612623  -0.724928791   0.497202382
|240> H   1.367012623   0.018171209  -0.066197618
|241> H   2.607412623  -0.597228791   0.621502382
|242> O  -1.740787377  -0.197528791   0.620002382
|243> H  -1.441687377  -0.175128791   1.538502382
|244> H  -1.388087377  -1.043128791   0.267802382
|245> O   0.056312623   0.878171209  -1.140097618
|246> H  -0.685287377   0.731471209  -0.508997618
|247> H  -0.064687377   1.768871209  -1.489197618
|248> *
|249> 
|250> 
|251> $new_job
|252> 
|253> # 4h2o.temelso.etal.dset.3h2o-orca.engrad-mp2.augccpvtz
|254> ! MP2 aug-cc-pVTZ EnGrad TightSCF FrozenCore
|255> 
|256> %pal
|257>     nprocs 12
|258> end
|259> 
|260> %maxcore 8000
|261> 
|262> %scf
|263>     ConvForced true
|264> end
|265> 
|266> *xyz 0 1
|267> O   1.763292496   0.277384699   0.436839908
|268> H   1.470692496   1.020484699  -0.126560092
|269> H   2.711092496   0.405084699   0.561139908
|270> O  -1.637107504   0.804784699   0.559639908
|271> H  -1.338007504   0.827184699   1.478139908
|272> H  -1.284407504  -0.040815301   0.207439908
|273> O  -0.249007504  -1.130215301  -0.990460092
|274> H  -0.214507504  -0.447615301  -1.678160092
|275> H   0.604892496  -1.001615301  -0.537560092
|276> *
|277> 
|278> 
|279> $new_job
|280> 
|281> # 4h2o.temelso.etal.dset.3h2o-orca.engrad-mp2.augccpvtz
|282> ! MP2 aug-cc-pVTZ EnGrad TightSCF FrozenCore
|283> 
|284> %pal
|285>     nprocs 12
|286> end
|287> 
|288> %maxcore 8000
|289> 
|290> %scf
|291>     ConvForced true
|292> end
|293> 
|294> *xyz 0 1
|295> O   1.192500396  -0.110407840   1.028841666
|296> H   0.899900396   0.632692160   0.465441666
|297> H   2.140300396   0.017292160   1.153141666
|298> O  -0.410799604   1.492692160  -0.608458334
|299> H  -1.152399604   1.345992160   0.022641666
|300> H  -0.531799604   2.383392160  -0.957558334
|301> O  -0.819799604  -1.518007840  -0.398458334
|302> H  -0.785299604  -0.835407840  -1.086158334
|303> H   0.034100396  -1.389407840   0.054441666
|304> *
|305> 
|306> 
|307> $new_job
|308> 
|309> # 4h2o.temelso.etal.dset.3h2o-orca.engrad-mp2.augccpvtz
|310> ! MP2 aug-cc-pVTZ EnGrad TightSCF FrozenCore
|311> 
|312> %pal
|313>     nprocs 12
|314> end
|315> 
|316> %maxcore 8000
|317> 
|318> %scf
|319>     ConvForced true
|320> end
|321> 
|322> *xyz 0 1
|323> O  -1.074369532   0.272782658   1.091959167
|324> H  -0.775269532   0.295182658   2.010459167
|325> H  -0.721669532  -0.572817342   0.739759167
|326> O   0.722730468   1.348482658  -0.668140833
|327> H  -0.018869532   1.201782658  -0.037040833
|328> H   0.601730468   2.239182658  -1.017240833
|329> O   0.313730468  -1.662217342  -0.458140833
|330> H   0.348230468  -0.979617342  -1.145840833
|331> H   1.167630468  -1.533617342  -0.005240833
|332> *
|333> 
|334>                          ****END OF INPUT****
================================================================================


                 $$$$$$$$$$$$$$$$$$$$$$$$$$$$$$$$$$$$$$$$$$$$$$ 
                 $ THERE ARE 12 JOBS TO BE PROCESSED THIS RUN $
                 $$$$$$$$$$$$$$$$$$$$$$$$$$$$$$$$$$$$$$$$$$$$$$ 




                 $$$$$$$$$$$$$$$$  JOB NUMBER  1 $$$$$$$$$$$$$$


                     *******************************
                     * Energy+Gradient Calculation *
                     *******************************

---------------------------------
CARTESIAN COORDINATES (ANGSTROEM)
---------------------------------
  O     -1.775039   -0.918893   -0.364923
  H     -2.193239   -1.133493   -1.207723
  H     -1.938239    0.044607   -0.241423
  O      0.950361   -0.880493   -0.009523
  H     -0.007239   -1.019293   -0.194223
  H      1.162261   -1.517593    0.683677
  O      0.854161    1.832007    0.424477
  H      1.012361    0.864107    0.332377
  H      1.496061    2.243807   -0.166923

----------------------------
CARTESIAN COORDINATES (A.U.)
----------------------------
  NO LB      ZA    FRAG     MASS         X           Y           Z
   0 O     8.0000    0    15.999   -3.354337   -1.736456   -0.689604
   1 H     1.0000    0     1.008   -4.144621   -2.141991   -2.282265
   2 H     1.0000    0     1.008   -3.662741    0.084295   -0.456223
   3 O     8.0000    0    15.999    1.795922   -1.663890   -0.017995
   4 H     1.0000    0     1.008   -0.013680   -1.926184   -0.367028
   5 H     1.0000    0     1.008    2.196355   -2.867835    1.291963
   6 O     8.0000    0    15.999    1.614131    3.461992    0.802146
   7 H     1.0000    0     1.008    1.913085    1.632926    0.628102
   8 H     1.0000    0     1.008    2.827146    4.240181   -0.315438

--------------------------------
INTERNAL COORDINATES (ANGSTROEM)
--------------------------------
 O      0   0   0     0.000000000000     0.00000000     0.00000000
 H      1   0   0     0.965016186393     0.00000000     0.00000000
 H      1   2   0     0.984996822330   104.78701950     0.00000000
 O      1   2   3     2.748743145512   123.07303403   250.25798596
 H      4   1   2     0.985077301535     8.08435971   310.20628916
 H      4   1   2     0.965051428681   107.53929957   239.02515673
 O      4   1   2     2.748684538102    89.97133568   114.12129453
 H      7   4   1     0.985058404360     8.09755512   160.67811646
 H      7   4   1     0.965074510077   107.52063836   232.05635428

---------------------------
INTERNAL COORDINATES (A.U.)
---------------------------
 O      0   0   0     0.000000000000     0.00000000     0.00000000
 H      1   0   0     1.823616307083     0.00000000     0.00000000
 H      1   2   0     1.861374236986   104.78701950     0.00000000
 O      1   2   3     5.194371757511   123.07303403   250.25798596
 H      4   1   2     1.861526320644     8.08435971   310.20628916
 H      4   1   2     1.823682905357   107.53929957   239.02515673
 O      4   1   2     5.194261005556    89.97133568   114.12129453
 H      7   4   1     1.861490610158     8.09755512   160.67811646
 H      7   4   1     1.823726522873   107.52063836   232.05635428

---------------------
BASIS SET INFORMATION
---------------------
There are 2 groups of distinct atoms

 Group   1 Type O   : 19s6p3d2f contracted to 5s4p3d2f pattern {88111/3111/111/11}
 Group   2 Type H   : 6s3p2d contracted to 4s3p2d pattern {3111/111/11}

Atom   0O    basis set group =>   1
Atom   1H    basis set group =>   2
Atom   2H    basis set group =>   2
Atom   3O    basis set group =>   1
Atom   4H    basis set group =>   2
Atom   5H    basis set group =>   2
Atom   6O    basis set group =>   1
Atom   7H    basis set group =>   2
Atom   8H    basis set group =>   2


           ************************************************************
           *        Program running with 12 parallel MPI-processes    *
           *              working on a common directory               *
           ************************************************************
------------------------------------------------------------------------------
                           ORCA GTO INTEGRAL CALCULATION
------------------------------------------------------------------------------

                         BASIS SET STATISTICS AND STARTUP INFO

 # of primitive gaussian shells          ...  156
 # of primitive gaussian functions       ...  348
 # of contracted shells                  ...   96
 # of contracted basis functions         ...  276
 Highest angular momentum                ...    3
 Maximum contraction depth               ...    8
 Integral package used                   ... LIBINT
 Integral threshhold            Thresh   ...  2.500e-11
 Primitive cut-off              TCut     ...  2.500e-12


------------------------------ INTEGRAL EVALUATION ----------------------------


 * One electron integrals 
 Pre-screening matrix                    ... done
 Shell pair data                         ... done (   0.001 sec)



           ************************************************************
           *        Program running with 12 parallel MPI-processes    *
           *              working on a common directory               *
           ************************************************************
-------------------------------------------------------------------------------
                                 ORCA SCF
-------------------------------------------------------------------------------

------------
SCF SETTINGS
------------
Hamiltonian:
 Ab initio Hamiltonian  Method          .... Hartree-Fock(GTOs)


General Settings:
 Integral files         IntName         .... 4h2o.temelso.etal.dset.3h2o-orca.engrad-mp2.augccpvtz
 Hartree-Fock type      HFTyp           .... RHF
 Total Charge           Charge          ....    0
 Multiplicity           Mult            ....    1
 Number of Electrons    NEL             ....   30
 Basis Dimension        Dim             ....  276
 Nuclear Repulsion      ENuc            ....     79.5388808059 Eh

Convergence Acceleration:
 DIIS                   CNVDIIS         .... on
   Start iteration      DIISMaxIt       ....    12
   Startup error        DIISStart       ....  0.200000
   # of expansion vecs  DIISMaxEq       ....     5
   Bias factor          DIISBfac        ....   1.050
   Max. coefficient     DIISMaxC        ....  10.000
 Newton-Raphson         CNVNR           .... off
 SOSCF                  CNVSOSCF        .... on
   Start iteration      SOSCFMaxIt      ....   150
   Startup grad/error   SOSCFStart      ....  0.003300
 Level Shifting         CNVShift        .... on
   Level shift para.    LevelShift      ....    0.2500
   Turn off err/grad.   ShiftErr        ....    0.0010
 Zerner damping         CNVZerner       .... off
 Static damping         CNVDamp         .... on
   Fraction old density DampFac         ....    0.7000
   Max. Damping (<1)    DampMax         ....    0.9800
   Min. Damping (>=0)   DampMin         ....    0.0000
   Turn off err/grad.   DampErr         ....    0.1000
 Fernandez-Rico         CNVRico         .... off

SCF Procedure:
 Maximum # iterations   MaxIter         ....   125
 SCF integral mode      SCFMode         .... Direct
   Integral package                     .... LIBINT
 Reset frequency        DirectResetFreq ....    20
 Integral Threshold     Thresh          ....  2.500e-11 Eh
 Primitive CutOff       TCut            ....  2.500e-12 Eh

Convergence Tolerance:
 Convergence Check Mode ConvCheckMode   .... Total+1el-Energy
 Convergence forced     ConvForced      .... 1
 Energy Change          TolE            ....  1.000e-08 Eh
 1-El. energy change                    ....  1.000e-05 Eh
 Orbital Gradient       TolG            ....  1.000e-05
 Orbital Rotation angle TolX            ....  1.000e-05
 DIIS Error             TolErr          ....  5.000e-07


Diagonalization of the overlap matrix:
Smallest eigenvalue                        ... 1.602e-04
Time for diagonalization                   ...    0.008 sec
Threshold for overlap eigenvalues          ... 1.000e-08
Number of eigenvalues below threshold      ... 0
Time for construction of square roots      ...    0.005 sec
Total time needed                          ...    0.013 sec

-------------------
DFT GRID GENERATION
-------------------

General Integration Accuracy     IntAcc      ...  4.340
Radial Grid Type                 RadialGrid  ... Gauss-Chebyshev
Angular Grid (max. acc.)         AngularGrid ... Lebedev-110
Angular grid pruning method      GridPruning ... 3 (G Style)
Weight generation scheme         WeightScheme... Becke
Basis function cutoff            BFCut       ...    1.0000e-11
Integration weight cutoff        WCut        ...    1.0000e-14
Grids for H and He will be reduced by one unit

# of grid points (after initial pruning)     ...   9912 (   0.0 sec)
# of grid points (after weights+screening)   ...   9590 (   0.0 sec)
nearest neighbour list constructed           ...    0.0 sec
Grid point re-assignment to atoms done       ...    0.0 sec
Grid point division into batches done        ...    0.0 sec
Reduced shell lists constructed in    0.0 sec

Total number of grid points                  ...     9590
Total number of batches                      ...      154
Average number of points per batch           ...       62
Average number of grid points per atom       ...     1066
Average number of shells per batch           ...    72.36 (75.37%)
Average number of basis functions per batch  ...   203.93 (73.89%)
Average number of large shells per batch     ...    61.21 (84.60%)
Average number of large basis fcns per batch ...   169.21 (82.98%)
Maximum spatial batch extension              ...  10.47, 10.07, 14.68 au
Average spatial batch extension              ...   0.23,  0.23,  0.27 au

Time for grid setup =    0.018 sec

------------------------------
INITIAL GUESS: MODEL POTENTIAL
------------------------------
Loading Hartree-Fock densities                     ... done
Calculating cut-offs                               ... done
Setting up the integral package                    ... done
Initializing the effective Hamiltonian             ... done
Starting the Coulomb interaction                   ... done (   0.0 sec)
Reading the grid                                   ... done
Mapping shells                                     ... done
Starting the XC term evaluation                    ... done (   0.0 sec)
Transforming the Hamiltonian                       ... done (   0.0 sec)
Diagonalizing the Hamiltonian                      ... done (   0.0 sec)
Back transforming the eigenvectors                 ... done (   0.0 sec)
Now organizing SCF variables                       ... done
                      ------------------
                      INITIAL GUESS DONE (   0.1 sec)
                      ------------------
--------------
SCF ITERATIONS
--------------
ITER       Energy         Delta-E        Max-DP      RMS-DP      [F,P]     Damp
               ***  Starting incremental Fock matrix formation  ***
  0   -227.9201606439   0.000000000000 0.02748680  0.00058951  0.3831078 0.7000
  1   -228.0261079553  -0.105947311327 0.01836511  0.00040719  0.2230970 0.7000
                               ***Turning on DIIS***
  2   -228.0820179575  -0.055910002278 0.01194524  0.00023375  0.1164659 0.7000
  3   -228.5301306993  -0.448112741751 0.03061984  0.00045519  0.0848152 0.0000
  4   -228.1172914270   0.412839272322 0.00443181  0.00007733  0.0129353 0.0000
                      *** Initiating the SOSCF procedure ***
                           *** Shutting down DIIS ***
                      *** Re-Reading the Fockian *** 
                      *** Removing any level shift *** 
ITER      Energy       Delta-E        Grad      Rot      Max-DP    RMS-DP
  5   -228.18588507  -0.0685936478  0.001034  0.001034  0.002382  0.000036
               *** Restarting incremental Fock matrix formation ***
  6   -228.18987045  -0.0039853768  0.000342  0.000399  0.001164  0.000017
  7   -228.18988697  -0.0000165174  0.000161  0.000335  0.001048  0.000015
  8   -228.18989079  -0.0000038200  0.000093  0.000049  0.000251  0.000003
  9   -228.18989105  -0.0000002606  0.000018  0.000014  0.000018  0.000000
 10   -228.18989107  -0.0000000177  0.000003  0.000005  0.000006  0.000000
                  ***Gradient check signals convergence***
              ***Rediagonalizing the Fockian in SOSCF/NRSCF***

               *****************************************************
               *                     SUCCESS                       *
               *           SCF CONVERGED AFTER  11 CYCLES          *
               *****************************************************


----------------
TOTAL SCF ENERGY
----------------

Total Energy       :         -228.18989107 Eh           -6209.36261 eV

Components:
Nuclear Repulsion  :           79.53888081 Eh            2164.36298 eV
Electronic Energy  :         -307.72877187 Eh           -8373.72559 eV
One Electron Energy:         -473.20372171 Eh          -12876.52790 eV
Two Electron Energy:          165.47494984 Eh            4502.80230 eV

Virial components:
Potential Energy   :         -455.96722049 Eh          -12407.49885 eV
Kinetic Energy     :          227.77732942 Eh            6198.13624 eV
Virial Ratio       :            2.00181125


---------------
SCF CONVERGENCE
---------------

  Last Energy change         ...   -9.0085e-10  Tolerance :   1.0000e-08
  Last MAX-Density change    ...    2.3470e-06  Tolerance :   1.0000e-07
  Last RMS-Density change    ...    5.3616e-08  Tolerance :   5.0000e-09
  Last Orbital Gradient      ...    7.3724e-07  Tolerance :   1.0000e-05
  Last Orbital Rotation      ...    1.4983e-06  Tolerance :   1.0000e-05

             **** THE GBW FILE WAS UPDATED (4h2o.temelso.etal.dset.3h2o-orca.engrad-mp2.augccpvtz.gbw) ****
             **** DENSITY FILE WAS UPDATED (4h2o.temelso.etal.dset.3h2o-orca.engrad-mp2.augccpvtz.scfp) ****
             **** ENERGY FILE WAS UPDATED (4h2o.temelso.etal.dset.3h2o-orca.engrad-mp2.augccpvtz.en.tmp) ****
             **** THE GBW FILE WAS UPDATED (4h2o.temelso.etal.dset.3h2o-orca.engrad-mp2.augccpvtz.gbw) ****
             **** DENSITY FILE WAS UPDATED (4h2o.temelso.etal.dset.3h2o-orca.engrad-mp2.augccpvtz.scfp) ****
----------------
ORBITAL ENERGIES
----------------

  NO   OCC          E(Eh)            E(eV) 
   0   2.0000     -20.602202      -560.6144 
   1   2.0000     -20.559624      -559.4558 
   2   2.0000     -20.526276      -558.5484 
   3   2.0000      -1.382820       -37.6285 
   4   2.0000      -1.344451       -36.5844 
   5   2.0000      -1.305238       -35.5173 
   6   2.0000      -0.744492       -20.2586 
   7   2.0000      -0.716331       -19.4924 
   8   2.0000      -0.682744       -18.5784 
   9   2.0000      -0.624700       -16.9989 
  10   2.0000      -0.585556       -15.9338 
  11   2.0000      -0.547357       -14.8943 
  12   2.0000      -0.534085       -14.5332 
  13   2.0000      -0.500216       -13.6116 
  14   2.0000      -0.470831       -12.8120 
  15   0.0000       0.021886         0.5955 
  16   0.0000       0.041131         1.1192 
  17   0.0000       0.047885         1.3030 
  18   0.0000       0.053470         1.4550 
  19   0.0000       0.073978         2.0131 
  20   0.0000       0.086421         2.3516 
  21   0.0000       0.121945         3.3183 
  22   0.0000       0.139878         3.8063 
  23   0.0000       0.151915         4.1338 
  24   0.0000       0.161585         4.3970 
  25   0.0000       0.172345         4.6898 
  26   0.0000       0.180815         4.9202 
  27   0.0000       0.186922         5.0864 
  28   0.0000       0.198066         5.3897 
  29   0.0000       0.205910         5.6031 
  30   0.0000       0.214097         5.8259 
  31   0.0000       0.227964         6.2032 
  32   0.0000       0.236023         6.4225 
  33   0.0000       0.253070         6.8864 
  34   0.0000       0.255790         6.9604 
  35   0.0000       0.281217         7.6523 
  36   0.0000       0.286407         7.7935 
  37   0.0000       0.303112         8.2481 
  38   0.0000       0.313447         8.5293 
  39   0.0000       0.330548         8.9947 
  40   0.0000       0.356608         9.7038 
  41   0.0000       0.369110        10.0440 
  42   0.0000       0.375064        10.2060 
  43   0.0000       0.387874        10.5546 
  44   0.0000       0.402666        10.9571 
  45   0.0000       0.409683        11.1480 
  46   0.0000       0.423883        11.5344 
  47   0.0000       0.433548        11.7974 
  48   0.0000       0.435054        11.8384 
  49   0.0000       0.441817        12.0224 
  50   0.0000       0.453537        12.3414 
  51   0.0000       0.468275        12.7424 
  52   0.0000       0.479852        13.0574 
  53   0.0000       0.495724        13.4893 
  54   0.0000       0.509371        13.8607 
  55   0.0000       0.565037        15.3754 
  56   0.0000       0.582371        15.8471 
  57   0.0000       0.592693        16.1280 
  58   0.0000       0.621442        16.9103 
  59   0.0000       0.651565        17.7300 
  60   0.0000       0.664318        18.0770 
  61   0.0000       0.686865        18.6906 
  62   0.0000       0.708040        19.2667 
  63   0.0000       0.728315        19.8185 
  64   0.0000       0.749780        20.4026 
  65   0.0000       0.760664        20.6987 
  66   0.0000       0.777555        21.1583 
  67   0.0000       0.781382        21.2625 
  68   0.0000       0.797784        21.7088 
  69   0.0000       0.804841        21.9008 
  70   0.0000       0.840217        22.8635 
  71   0.0000       0.847939        23.0736 
  72   0.0000       0.855126        23.2692 
  73   0.0000       0.858930        23.3727 
  74   0.0000       0.891392        24.2560 
  75   0.0000       0.904605        24.6155 
  76   0.0000       0.922525        25.1032 
  77   0.0000       0.924778        25.1645 
  78   0.0000       0.928506        25.2659 
  79   0.0000       0.948830        25.8190 
  80   0.0000       0.960560        26.1382 
  81   0.0000       0.970300        26.4032 
  82   0.0000       0.977087        26.5879 
  83   0.0000       0.983625        26.7658 
  84   0.0000       0.993553        27.0359 
  85   0.0000       1.000199        27.2168 
  86   0.0000       1.009959        27.4824 
  87   0.0000       1.016057        27.6483 
  88   0.0000       1.029805        28.0224 
  89   0.0000       1.048153        28.5217 
  90   0.0000       1.055199        28.7134 
  91   0.0000       1.069775        29.1101 
  92   0.0000       1.080723        29.4080 
  93   0.0000       1.087619        29.5956 
  94   0.0000       1.123418        30.5698 
  95   0.0000       1.143566        31.1180 
  96   0.0000       1.174778        31.9673 
  97   0.0000       1.189588        32.3703 
  98   0.0000       1.192886        32.4601 
  99   0.0000       1.212576        32.9959 
 100   0.0000       1.227101        33.3911 
 101   0.0000       1.237130        33.6640 
 102   0.0000       1.258946        34.2577 
 103   0.0000       1.272981        34.6396 
 104   0.0000       1.290275        35.1102 
 105   0.0000       1.297682        35.3117 
 106   0.0000       1.317722        35.8570 
 107   0.0000       1.339948        36.4618 
 108   0.0000       1.364073        37.1183 
 109   0.0000       1.410819        38.3903 
 110   0.0000       1.446025        39.3483 
 111   0.0000       1.462471        39.7959 
 112   0.0000       1.487559        40.4785 
 113   0.0000       1.502017        40.8720 
 114   0.0000       1.536567        41.8121 
 115   0.0000       1.564894        42.5829 
 116   0.0000       1.574515        42.8447 
 117   0.0000       1.625894        44.2428 
 118   0.0000       1.627746        44.2932 
 119   0.0000       1.647424        44.8287 
 120   0.0000       1.692811        46.0637 
 121   0.0000       1.703188        46.3461 
 122   0.0000       1.737287        47.2740 
 123   0.0000       1.745573        47.4995 
 124   0.0000       1.771914        48.2162 
 125   0.0000       1.775787        48.3216 
 126   0.0000       1.825188        49.6659 
 127   0.0000       1.873407        50.9780 
 128   0.0000       1.944193        52.9042 
 129   0.0000       1.984224        53.9935 
 130   0.0000       2.009568        54.6831 
 131   0.0000       2.018176        54.9174 
 132   0.0000       2.055794        55.9410 
 133   0.0000       2.109092        57.3913 
 134   0.0000       2.131655        58.0053 
 135   0.0000       2.172255        59.1101 
 136   0.0000       2.288335        62.2688 
 137   0.0000       2.300812        62.6083 
 138   0.0000       2.347462        63.8777 
 139   0.0000       2.376189        64.6594 
 140   0.0000       2.399732        65.3000 
 141   0.0000       2.415614        65.7322 
 142   0.0000       2.427370        66.0521 
 143   0.0000       2.464724        67.0685 
 144   0.0000       2.480067        67.4861 
 145   0.0000       2.493199        67.8434 
 146   0.0000       2.506723        68.2114 
 147   0.0000       2.521727        68.6197 
 148   0.0000       2.531858        68.8954 
 149   0.0000       2.555797        69.5468 
 150   0.0000       2.570738        69.9533 
 151   0.0000       2.579628        70.1952 
 152   0.0000       2.587938        70.4214 
 153   0.0000       2.629011        71.5390 
 154   0.0000       2.657922        72.3257 
 155   0.0000       2.690969        73.2250 
 156   0.0000       2.706098        73.6367 
 157   0.0000       2.731859        74.3377 
 158   0.0000       2.754064        74.9419 
 159   0.0000       2.765766        75.2603 
 160   0.0000       2.804181        76.3056 
 161   0.0000       2.824140        76.8488 
 162   0.0000       2.844966        77.4155 
 163   0.0000       2.872910        78.1758 
 164   0.0000       2.899172        78.8905 
 165   0.0000       2.935865        79.8890 
 166   0.0000       2.944813        80.1324 
 167   0.0000       2.980855        81.1132 
 168   0.0000       3.004578        81.7587 
 169   0.0000       3.034461        82.5719 
 170   0.0000       3.080527        83.8254 
 171   0.0000       3.108549        84.5879 
 172   0.0000       3.200371        87.0865 
 173   0.0000       3.237175        88.0880 
 174   0.0000       3.772444       102.6534 
 175   0.0000       3.792717       103.2051 
 176   0.0000       3.838214       104.4431 
 177   0.0000       3.887412       105.7819 
 178   0.0000       4.028179       109.6123 
 179   0.0000       4.091290       111.3297 
 180   0.0000       4.102215       111.6269 
 181   0.0000       4.134916       112.5168 
 182   0.0000       4.149434       112.9118 
 183   0.0000       4.194983       114.1513 
 184   0.0000       4.221920       114.8843 
 185   0.0000       4.238534       115.3364 
 186   0.0000       4.256411       115.8228 
 187   0.0000       4.267946       116.1367 
 188   0.0000       4.283826       116.5688 
 189   0.0000       4.293259       116.8255 
 190   0.0000       4.332540       117.8944 
 191   0.0000       4.374870       119.0463 
 192   0.0000       4.405555       119.8813 
 193   0.0000       4.410970       120.0286 
 194   0.0000       4.451118       121.1211 
 195   0.0000       4.464119       121.4748 
 196   0.0000       4.484237       122.0223 
 197   0.0000       4.491316       122.2149 
 198   0.0000       4.525870       123.1552 
 199   0.0000       4.550589       123.8278 
 200   0.0000       4.576527       124.5336 
 201   0.0000       4.590991       124.9272 
 202   0.0000       4.616036       125.6087 
 203   0.0000       4.652683       126.6060 
 204   0.0000       4.696241       127.7912 
 205   0.0000       4.729331       128.6917 
 206   0.0000       4.740586       128.9979 
 207   0.0000       4.761934       129.5788 
 208   0.0000       4.861609       132.2911 
 209   0.0000       4.881049       132.8201 
 210   0.0000       4.919474       133.8657 
 211   0.0000       5.032444       136.9398 
 212   0.0000       5.061427       137.7284 
 213   0.0000       5.114432       139.1708 
 214   0.0000       5.132774       139.6699 
 215   0.0000       5.161319       140.4466 
 216   0.0000       5.229048       142.2896 
 217   0.0000       5.240176       142.5924 
 218   0.0000       5.257054       143.0517 
 219   0.0000       5.278138       143.6254 
 220   0.0000       5.298990       144.1929 
 221   0.0000       5.351136       145.6118 
 222   0.0000       5.372692       146.1984 
 223   0.0000       5.411928       147.2661 
 224   0.0000       5.514596       150.0598 
 225   0.0000       5.569935       151.5656 
 226   0.0000       5.599735       152.3765 
 227   0.0000       5.691081       154.8622 
 228   0.0000       5.782625       157.3532 
 229   0.0000       5.787717       157.4918 
 230   0.0000       5.849444       159.1715 
 231   0.0000       6.272243       170.6764 
 232   0.0000       6.306932       171.6203 
 233   0.0000       6.404045       174.2629 
 234   0.0000       6.533404       177.7830 
 235   0.0000       6.578320       179.0052 
 236   0.0000       6.596974       179.5128 
 237   0.0000       6.810740       185.3297 
 238   0.0000       6.820777       185.6028 
 239   0.0000       6.862262       186.7316 
 240   0.0000       6.904609       187.8840 
 241   0.0000       6.998366       190.4352 
 242   0.0000       7.005024       190.6164 
 243   0.0000       7.150410       194.5726 
 244   0.0000       7.178038       195.3243 
 245   0.0000       7.201804       195.9710 
 246   0.0000       7.263748       197.6566 
 247   0.0000       7.284233       198.2141 
 248   0.0000       7.313193       199.0021 
 249   0.0000       7.324811       199.3182 
 250   0.0000       7.342628       199.8031 
 251   0.0000       7.359401       200.2595 
 252   0.0000       7.365626       200.4289 
 253   0.0000       7.389409       201.0760 
 254   0.0000       7.417229       201.8331 
 255   0.0000       7.427034       202.0999 
 256   0.0000       7.454318       202.8423 
 257   0.0000       7.492258       203.8747 
 258   0.0000       7.539090       205.1491 
 259   0.0000       7.561018       205.7458 
 260   0.0000       7.598376       206.7623 
 261   0.0000       7.684968       209.1186 
 262   0.0000       7.792392       212.0418 
 263   0.0000       7.877137       214.3478 
 264   0.0000       7.929599       215.7754 
 265   0.0000       7.979278       217.1272 
 266   0.0000       8.014131       218.0756 
 267   0.0000       8.055649       219.2053 
 268   0.0000       8.083854       219.9729 
 269   0.0000       8.175457       222.4655 
 270   0.0000       8.812307       239.7951 
 271   0.0000       8.916954       242.6426 
 272   0.0000       8.994666       244.7573 
 273   0.0000      15.780321       429.4044 
 274   0.0000      16.319795       444.0842 
 275   0.0000      17.222352       468.6440 

                    ********************************
                    * MULLIKEN POPULATION ANALYSIS *
                    ********************************

-----------------------
MULLIKEN ATOMIC CHARGES
-----------------------
   0 O :   -0.448034
   1 H :    0.213590
   2 H :    0.258757
   3 O :   -0.496442
   4 H :    0.322568
   5 H :    0.182177
   6 O :   -0.545133
   7 H :    0.319089
   8 H :    0.193428
Sum of atomic charges:   -0.0000000

--------------------------------
MULLIKEN REDUCED ORBITAL CHARGES
--------------------------------
  0 O s       :     3.866689  s :     3.866689
      pz      :     1.447097  p :     4.568979
      px      :     1.765543
      py      :     1.356339
      dz2     :     0.003531  d :     0.011607
      dxz     :     0.003739
      dyz     :     0.000286
      dx2y2   :     0.001862
      dxy     :     0.002189
      f0      :    -0.000046  f :     0.000760
      f+1     :     0.000422
      f-1     :     0.000119
      f+2     :     0.000085
      f-2     :     0.000053
      f+3     :    -0.000028
      f-3     :     0.000154
  1 H s       :     0.666835  s :     0.666835
      pz      :     0.020285  p :     0.099647
      px      :     0.047656
      py      :     0.031706
      dz2     :     0.006221  d :     0.019927
      dxz     :     0.005391
      dyz     :     0.003858
      dx2y2   :     0.003013
      dxy     :     0.001444
  2 H s       :     0.630386  s :     0.630386
      pz      :     0.032584  p :     0.091902
      px      :     0.042623
      py      :     0.016695
      dz2     :     0.001584  d :     0.018955
      dxz     :     0.000368
      dyz     :     0.006690
      dx2y2   :     0.001040
      dxy     :     0.009273
  3 O s       :     3.881920  s :     3.881920
      pz      :     1.560537  p :     4.596464
      px      :     1.425002
      py      :     1.610924
      dz2     :     0.002681  d :     0.017414
      dxz     :     0.000654
      dyz     :     0.003479
      dx2y2   :     0.008023
      dxy     :     0.002576
      f0      :     0.000128  f :     0.000644
      f+1     :     0.000109
      f-1     :     0.000194
      f+2     :     0.000244
      f-2     :     0.000044
      f+3     :    -0.000008
      f-3     :    -0.000067
  4 H s       :     0.561802  s :     0.561802
      pz      :     0.041301  p :     0.067727
      px      :    -0.010730
      py      :     0.037156
      dz2     :     0.003413  d :     0.047903
      dxz     :     0.016172
      dyz     :     0.000961
      dx2y2   :     0.007101
      dxy     :     0.020256
  5 H s       :     0.689501  s :     0.689501
      pz      :     0.031199  p :     0.109025
      px      :     0.036538
      py      :     0.041288
      dz2     :     0.007940  d :     0.019297
      dxz     :     0.003018
      dyz     :     0.001321
      dx2y2   :     0.004362
      dxy     :     0.002656
  6 O s       :     3.889650  s :     3.889650
      pz      :     1.662475  p :     4.631717
      px      :     1.619690
      py      :     1.349552
      dz2     :     0.003323  d :     0.022583
      dxz     :     0.004754
      dyz     :     0.002571
      dx2y2   :     0.008637
      dxy     :     0.003298
      f0      :     0.000147  f :     0.001183
      f+1     :     0.000217
      f-1     :     0.000116
      f+2     :     0.000186
      f-2     :     0.000303
      f+3     :     0.000050
      f-3     :     0.000164
  7 H s       :     0.569037  s :     0.569037
      pz      :     0.036531  p :     0.065758
      px      :     0.032977
      py      :    -0.003750
      dz2     :     0.002517  d :     0.046116
      dxz     :     0.000107
      dyz     :     0.017977
      dx2y2   :     0.007258
      dxy     :     0.018256
  8 H s       :     0.681234  s :     0.681234
      pz      :     0.037539  p :     0.108069
      px      :     0.035206
      py      :     0.035324
      dz2     :     0.006754  d :     0.017269
      dxz     :     0.001641
      dyz     :     0.001569
      dx2y2   :     0.005261
      dxy     :     0.002045


                     *******************************
                     * LOEWDIN POPULATION ANALYSIS *
                     *******************************

----------------------
LOEWDIN ATOMIC CHARGES
----------------------
   0 O :    1.081827
   1 H :   -0.454503
   2 H :   -0.408200
   3 O :    1.094483
   4 H :   -0.652367
   5 H :   -0.449775
   6 O :    1.011827
   7 H :   -0.712484
   8 H :   -0.510808

-------------------------------
LOEWDIN REDUCED ORBITAL CHARGES
-------------------------------
  0 O s       :     2.965669  s :     2.965669
      pz      :     1.270210  p :     3.836500
      px      :     1.353466
      py      :     1.212824
      dz2     :     0.027480  d :     0.097355
      dxz     :     0.017640
      dyz     :     0.008023
      dx2y2   :     0.037089
      dxy     :     0.007123
      f0      :     0.001647  f :     0.018648
      f+1     :     0.005386
      f-1     :     0.002882
      f+2     :     0.001011
      f-2     :     0.000861
      f+3     :     0.002826
      f-3     :     0.004036
  1 H s       :     0.576094  s :     0.576094
      pz      :     0.225331  p :     0.522731
      px      :     0.162503
      py      :     0.134897
      dz2     :     0.115457  d :     0.355678
      dxz     :     0.093168
      dyz     :     0.091558
      dx2y2   :     0.032871
      dxy     :     0.022625
  2 H s       :     0.556787  s :     0.556787
      pz      :     0.129567  p :     0.500239
      px      :     0.138535
      py      :     0.232137
      dz2     :     0.033601  d :     0.351173
      dxz     :     0.004097
      dyz     :     0.113892
      dx2y2   :     0.091285
      dxy     :     0.108298
  3 O s       :     2.957379  s :     2.957379
      pz      :     1.295993  p :     3.830357
      px      :     1.238559
      py      :     1.295805
      dz2     :     0.014021  d :     0.099823
      dxz     :     0.008639
      dyz     :     0.026078
      dx2y2   :     0.042446
      dxy     :     0.008639
      f0      :     0.000819  f :     0.017958
      f+1     :     0.001672
      f-1     :     0.004495
      f+2     :     0.003111
      f-2     :     0.001157
      f+3     :     0.003861
      f-3     :     0.002842
  4 H s       :     0.534273  s :     0.534273
      pz      :     0.140261  p :     0.607475
      px      :     0.331676
      py      :     0.135538
      dz2     :     0.059780  d :     0.510619
      dxz     :     0.147270
      dyz     :     0.008276
      dx2y2   :     0.152908
      dxy     :     0.142386
  5 H s       :     0.578565  s :     0.578565
      pz      :     0.204226  p :     0.520435
      px      :     0.132813
      py      :     0.183396
      dz2     :     0.095452  d :     0.350775
      dxz     :     0.065763
      dyz     :     0.085814
      dx2y2   :     0.055536
      dxy     :     0.048211
  6 O s       :     3.008951  s :     3.008951
      pz      :     1.351635  p :     3.894995
      px      :     1.337606
      py      :     1.205754
      dz2     :     0.008224  d :     0.070561
      dxz     :     0.013433
      dyz     :     0.010634
      dx2y2   :     0.025075
      dxy     :     0.013195
      f0      :     0.000694  f :     0.013667
      f+1     :     0.001288
      f-1     :     0.002056
      f+2     :     0.001594
      f-2     :     0.003398
      f+3     :     0.001279
      f-3     :     0.003358
  7 H s       :     0.549068  s :     0.549068
      pz      :     0.151414  p :     0.638541
      px      :     0.148945
      py      :     0.338182
      dz2     :     0.051123  d :     0.524876
      dxz     :     0.003221
      dyz     :     0.163206
      dx2y2   :     0.147862
      dxy     :     0.159463
  8 H s       :     0.593960  s :     0.593960
      pz      :     0.202853  p :     0.554145
      px      :     0.207522
      py      :     0.143770
      dz2     :     0.087593  d :     0.362703
      dxz     :     0.081157
      dyz     :     0.053800
      dx2y2   :     0.082325
      dxy     :     0.057829


                      *****************************
                      * MAYER POPULATION ANALYSIS *
                      *****************************

  NA   - Mulliken gross atomic population
  ZA   - Total nuclear charge
  QA   - Mulliken gross atomic charge
  VA   - Mayer's total valence
  BVA  - Mayer's bonded valence
  FA   - Mayer's free valence

  ATOM       NA         ZA         QA         VA         BVA        FA
  0 O      8.4480     8.0000    -0.4480     1.9588     1.9588    -0.0000
  1 H      0.7864     1.0000     0.2136     1.0393     1.0393     0.0000
  2 H      0.7412     1.0000     0.2588     1.0045     1.0045    -0.0000
  3 O      8.4964     8.0000    -0.4964     1.9112     1.9112    -0.0000
  4 H      0.6774     1.0000     0.3226     0.9472     0.9472    -0.0000
  5 H      0.8178     1.0000     0.1822     1.0861     1.0861    -0.0000
  6 O      8.5451     8.0000    -0.5451     1.8746     1.8746     0.0000
  7 H      0.6809     1.0000     0.3191     0.9500     0.9500    -0.0000
  8 H      0.8066     1.0000     0.1934     1.0792     1.0792    -0.0000

  Mayer bond orders larger than 0.100000
B(  0-O ,  1-H ) :   1.0095 B(  0-O ,  2-H ) :   0.9630 B(  3-O ,  4-H ) :   0.8917 
B(  3-O ,  5-H ) :   1.0458 B(  6-O ,  7-H ) :   0.8716 B(  6-O ,  8-H ) :   1.0368 


-------
TIMINGS
-------

Total SCF time: 0 days 0 hours 0 min 15 sec 

Total time                  ....      15.646 sec
Sum of individual times     ....      15.401 sec  ( 98.4%)

Fock matrix formation       ....      15.131 sec  ( 96.7%)
Diagonalization             ....       0.065 sec  (  0.4%)
Density matrix formation    ....       0.008 sec  (  0.1%)
Population analysis         ....       0.010 sec  (  0.1%)
Initial guess               ....       0.099 sec  (  0.6%)
Orbital Transformation      ....       0.000 sec  (  0.0%)
Orbital Orthonormalization  ....       0.000 sec  (  0.0%)
DIIS solution               ....       0.026 sec  (  0.2%)
SOSCF solution              ....       0.043 sec  (  0.3%)


           ************************************************************
           *        Program running with 12 parallel MPI-processes    *
           *              working on a common directory               *
           ************************************************************

------------------------------------------------------------------------------
                                ORCA  MP2 
------------------------------------------------------------------------------

Freezing NCore=6 chemical core electrons
MP2 will be done in the AO integral direct mode
The Q1-step will be done using symmetric double matrices
Dimension of the basis                    ...  276
Memory devoted for MP2                    ... 8000 MB   
Memory needed for all in one shot         ...   81 MB
Number of MOs that can be treated together...   98      
MP2 density construction                  ... relaxed
The MP2 gradient is requested => amplitudes will be stored on disk
Total number of MOs              ...   12
Number of MOs treated per batch  ...    1 
Number of batches necessary      ...    1 
OPERATORS   0/  0 PASS   0
-----------------------------------------------
 MP2 CORRELATION ENERGY   :     -0.816293997 Eh
-----------------------------------------------


---------------------
MP2 DENSITY FORMATION
---------------------

Completing the external part of the density      ... done
Storing the unrelaxed density                    ... done

Calculating G(D)                                 ... done
Completing the Lagrangian                        ... done
Solving the Z-vector equations                   ... 

------------------------------------------------------------------------------
                           ORCA CP-SCF CALCULATION
------------------------------------------------------------------------------

Input orbitals are from        ... 4h2o.temelso.etal.dset.3h2o-orca.engrad-mp2.augccpvtz.gbw
Input Perturbation             ... 4h2o.temelso.etal.dset.3h2o-orca.engrad-mp2.augccpvtz.pin.tmp
Wavefunction output            ... 4h2o.temelso.etal.dset.3h2o-orca.engrad-mp2.augccpvtz.pout.tmp
Perturbation mode              ... Real perturbation (singlet)
Solver                         ... POPLE
Max. number of iterations      ... 128
Convergence tolerance          ... 1.000e-08
Integral handling              ... Direct
Number of perturbations        ... 1
Number of operators            ... 1
Orbital ranges used for CP-SCF:
 Operator 0:  Orbitals   0... 14  to  15...275
Variables per vector in CP-SCF ... 3915
Number of vectors sought       ... 1
     CP-SCF ITERATION   0: 
     CP-SCF ITERATION   1:      0.000240227424
     CP-SCF ITERATION   2:      0.000016292893
     CP-SCF ITERATION   3:      0.000000424996
     CP-SCF ITERATION   4:      0.000000043958
     CP-SCF ITERATION   5:      0.000000006179
                                                 ... done
Finalizing the relaxed density                   ... done
Transforming P to the AO basis                   ... done
Storing the relaxed density                      ... done

------------------------------------
[...]
      px      :     1.253437
      py      :     1.336218
      dz2     :     0.011587  d :     0.116318
      dxz     :     0.029245
      dyz     :     0.035402
      dx2y2   :     0.029227
      dxy     :     0.010856
      f0      :     0.002955  f :     0.021950
      f+1     :     0.000915
      f-1     :     0.003959
      f+2     :     0.006830
      f-2     :     0.002201
      f+3     :     0.002897
      f-3     :     0.002194
  7 H s       :     0.555301  s :     0.555301
      pz      :     0.186892  p :     0.552534
      px      :     0.138648
      py      :     0.226993
      dz2     :     0.098325  d :     0.395869
      dxz     :     0.070943
      dyz     :     0.095014
      dx2y2   :     0.071804
      dxy     :     0.059783
  8 H s       :     0.563094  s :     0.563094
      pz      :     0.158546  p :     0.526362
      px      :     0.219096
      py      :     0.148720
      dz2     :     0.064396  d :     0.358841
      dxz     :     0.094968
      dyz     :     0.032925
      dx2y2   :     0.075908
      dxy     :     0.090645


                      *****************************
                      * MAYER POPULATION ANALYSIS *
                      *****************************

  NA   - Mulliken gross atomic population
  ZA   - Total nuclear charge
  QA   - Mulliken gross atomic charge
  VA   - Mayer's total valence
  BVA  - Mayer's bonded valence
  FA   - Mayer's free valence

  ATOM       NA         ZA         QA         VA         BVA        FA
  0 O      8.4797     8.0000    -0.4797     2.1707     1.7899     0.3808
  1 H      0.8125     1.0000     0.1875     1.0880     1.0204     0.0675
  2 H      0.6754     1.0000     0.3246     0.9301     0.8712     0.0589
  3 O      8.5099     8.0000    -0.5099     2.1682     1.7871     0.3811
  4 H      0.6957     1.0000     0.3043     0.9725     0.9102     0.0623
  5 H      0.8282     1.0000     0.1718     1.0774     1.0077     0.0697
  6 O      8.5119     8.0000    -0.5119     2.1345     1.7513     0.3832
  7 H      0.7241     1.0000     0.2759     0.9900     0.9276     0.0624
  8 H      0.7625     1.0000     0.2375     1.0293     0.9639     0.0654

  Mayer bond orders larger than 0.100000
B(  0-O ,  1-H ) :   0.9748 B(  0-O ,  2-H ) :   0.8375 B(  3-O ,  4-H ) :   0.8405 
B(  3-O ,  5-H ) :   0.9871 B(  6-O ,  7-H ) :   0.8871 B(  6-O ,  8-H ) :   0.9198 



                *******************************************
                * RELAXED MP2 DENSITY POPULATION ANALYSIS *
                *******************************************

------------------------------------------------------------------------------
                           ORCA POPULATION ANALYSIS
------------------------------------------------------------------------------
Input electron density              ... 4h2o.temelso.etal.dset.3h2o-orca.engrad-mp2.augccpvtz_job12.pmp2re
BaseName (.gbw .S,...)              ... 4h2o.temelso.etal.dset.3h2o-orca.engrad-mp2.augccpvtz_job12

                    ********************************
                    * MULLIKEN POPULATION ANALYSIS *
                    ********************************

-----------------------
MULLIKEN ATOMIC CHARGES
-----------------------
   0 O :   -0.448511
   1 H :    0.187611
   2 H :    0.299608
   3 O :   -0.500108
   4 H :    0.277391
   5 H :    0.171305
   6 O :   -0.487201
   7 H :    0.263257
   8 H :    0.236648
Sum of atomic charges:   -0.0000000

--------------------------------
MULLIKEN REDUCED ORBITAL CHARGES
--------------------------------
  0 O s       :     3.870272  s :     3.870272
      pz      :     1.319457  p :     4.527107
      px      :     1.709602
      py      :     1.498048
      dz2     :     0.010689  d :     0.046349
      dxz     :     0.007042
      dyz     :     0.008530
      dx2y2   :     0.009054
      dxy     :     0.011034
      f0      :     0.000777  f :     0.004783
      f+1     :     0.000798
      f-1     :     0.000528
      f+2     :     0.000601
      f-2     :     0.000602
      f+3     :     0.000822
      f-3     :     0.000656
  1 H s       :     0.674991  s :     0.674991
      pz      :     0.029714  p :     0.120890
      px      :     0.050023
      py      :     0.041152
      dz2     :     0.002735  d :     0.016509
      dxz     :     0.005807
      dyz     :     0.006324
      dx2y2   :     0.000882
      dxy     :     0.000762
  2 H s       :     0.576433  s :     0.576433
      pz      :     0.028193  p :     0.090520
      px      :     0.035502
      py      :     0.026825
      dz2     :     0.006231  d :     0.033439
      dxz     :     0.007527
      dyz     :     0.006091
      dx2y2   :     0.008119
      dxy     :     0.005472
  3 O s       :     3.874158  s :     3.874158
      pz      :     1.601090  p :     4.573527
      px      :     1.575040
      py      :     1.397398
      dz2     :     0.007509  d :     0.047393
      dxz     :     0.013015
      dyz     :     0.006950
      dx2y2   :     0.011094
      dxy     :     0.008824
      f0      :     0.000814  f :     0.005031
      f+1     :     0.000740
      f-1     :     0.000657
      f+2     :     0.000860
      f-2     :     0.000639
      f+3     :     0.000669
      f-3     :     0.000651
  4 H s       :     0.588374  s :     0.588374
      pz      :     0.036888  p :     0.096345
      px      :     0.022850
      py      :     0.036607
      dz2     :     0.013359  d :     0.037890
      dxz     :    -0.000684
      dyz     :     0.010983
      dx2y2   :     0.005898
      dxy     :     0.008334
  5 H s       :     0.699589  s :     0.699589
      pz      :     0.044126  p :     0.114447
      px      :     0.043020
      py      :     0.027301
      dz2     :     0.002857  d :     0.014659
      dxz     :     0.001369
      dyz     :     0.003595
      dx2y2   :     0.001433
      dxy     :     0.005406
  6 O s       :     3.881661  s :     3.881661
      pz      :     1.486556  p :     4.553686
      px      :     1.465964
      py      :     1.601166
      dz2     :     0.007196  d :     0.047026
      dxz     :     0.008420
      dyz     :     0.010614
      dx2y2   :     0.011997
      dxy     :     0.008799
      f0      :     0.000714  f :     0.004828
      f+1     :     0.000569
      f-1     :     0.000800
      f+2     :     0.000786
      f-2     :     0.000602
      f+3     :     0.000677
      f-3     :     0.000681
  7 H s       :     0.611976  s :     0.611976
      pz      :     0.035041  p :     0.107096
      px      :     0.037962
      py      :     0.034093
      dz2     :     0.006829  d :     0.017670
      dxz     :     0.003877
      dyz     :    -0.000058
      dx2y2   :     0.003382
      dxy     :     0.003641
  8 H s       :     0.642855  s :     0.642855
      pz      :     0.035754  p :     0.106298
      px      :     0.028211
      py      :     0.042333
      dz2     :     0.003834  d :     0.014199
      dxz     :     0.001611
      dyz     :     0.002846
      dx2y2   :     0.001190
      dxy     :     0.004718


                     *******************************
                     * LOEWDIN POPULATION ANALYSIS *
                     *******************************

----------------------
LOEWDIN ATOMIC CHARGES
----------------------
   0 O :    1.093029
   1 H :   -0.452042
   2 H :   -0.602246
   3 O :    1.035498
   4 H :   -0.686349
   5 H :   -0.496658
   6 O :    1.068625
   7 H :   -0.508621
   8 H :   -0.451237

-------------------------------
LOEWDIN REDUCED ORBITAL CHARGES
-------------------------------
  0 O s       :     2.961516  s :     2.961516
      pz      :     1.179172  p :     3.797308
      px      :     1.360575
      py      :     1.257561
      dz2     :     0.038813  d :     0.125167
      dxz     :     0.024801
      dyz     :     0.023786
      dx2y2   :     0.017167
      dxy     :     0.020600
      f0      :     0.005447  f :     0.022979
      f+1     :     0.005294
      f-1     :     0.001633
      f+2     :     0.002316
      f-2     :     0.003309
      f+3     :     0.003603
      f-3     :     0.001377
  1 H s       :     0.569369  s :     0.569369
      pz      :     0.220666  p :     0.539291
      px      :     0.177218
      py      :     0.141408
      dz2     :     0.106758  d :     0.343382
      dxz     :     0.106627
      dyz     :     0.108234
      dx2y2   :     0.013059
      dxy     :     0.008703
  2 H s       :     0.532591  s :     0.532591
      pz      :     0.163110  p :     0.601998
      px      :     0.190012
      py      :     0.248877
      dz2     :     0.075463  d :     0.467656
      dxz     :     0.049887
      dyz     :     0.118527
      dx2y2   :     0.102401
      dxy     :     0.121378
  3 O s       :     2.993711  s :     2.993711
      pz      :     1.296928  p :     3.846616
      px      :     1.320643
      py      :     1.229045
      dz2     :     0.010397  d :     0.105608
      dxz     :     0.027781
      dyz     :     0.020695
      dx2y2   :     0.036772
      dxy     :     0.009963
      f0      :     0.002812  f :     0.018567
      f+1     :     0.002186
      f-1     :     0.001070
      f+2     :     0.005334
      f-2     :     0.001279
      f+3     :     0.002529
      f-3     :     0.003357
  4 H s       :     0.539291  s :     0.539291
      pz      :     0.232199  p :     0.644121
      px      :     0.258416
      py      :     0.153507
      dz2     :     0.107083  d :     0.502937
      dxz     :     0.131346
      dyz     :     0.085437
      dx2y2   :     0.092303
      dxy     :     0.086767
  5 H s       :     0.584107  s :     0.584107
      pz      :     0.166675  p :     0.562611
      px      :     0.160632
      py      :     0.235304
      dz2     :     0.049881  d :     0.349940
      dxz     :     0.020821
      dyz     :     0.100629
      dx2y2   :     0.077980
      dxy     :     0.100629
  6 O s       :     2.978127  s :     2.978127
      pz      :     1.236412  p :     3.816137
      px      :     1.251581
      py      :     1.328144
      dz2     :     0.011480  d :     0.114917
      dxz     :     0.028600
      dyz     :     0.035170
      dx2y2   :     0.028750
      dxy     :     0.010918
      f0      :     0.002978  f :     0.022194
      f+1     :     0.000918
      f-1     :     0.004021
      f+2     :     0.006963
      f-2     :     0.002199
      f+3     :     0.002913
      f-3     :     0.002203
  7 H s       :     0.552635  s :     0.552635
      pz      :     0.189521  p :     0.565518
      px      :     0.142712
      py      :     0.233285
      dz2     :     0.096592  d :     0.390468
      dxz     :     0.069646
      dyz     :     0.094547
      dx2y2   :     0.070995
      dxy     :     0.058688
  8 H s       :     0.558464  s :     0.558464
      pz      :     0.162225  p :     0.540269
      px      :     0.222686
      py      :     0.155358
      dz2     :     0.063149  d :     0.352504
      dxz     :     0.093816
      dyz     :     0.032283
      dx2y2   :     0.074618
      dxy     :     0.088638


                      *****************************
                      * MAYER POPULATION ANALYSIS *
                      *****************************

  NA   - Mulliken gross atomic population
  ZA   - Total nuclear charge
  QA   - Mulliken gross atomic charge
  VA   - Mayer's total valence
  BVA  - Mayer's bonded valence
  FA   - Mayer's free valence

  ATOM       NA         ZA         QA         VA         BVA        FA
  0 O      8.4485     8.0000    -0.4485     2.2213     1.8475     0.3738
  1 H      0.8124     1.0000     0.1876     1.0984     1.0320     0.0664
  2 H      0.7004     1.0000     0.2996     0.9758     0.9187     0.0570
  3 O      8.5001     8.0000    -0.5001     2.1823     1.8087     0.3736
  4 H      0.7226     1.0000     0.2774     1.0180     0.9575     0.0606
  5 H      0.8287     1.0000     0.1713     1.0933     1.0250     0.0682
  6 O      8.4872     8.0000    -0.4872     2.1905     1.8146     0.3759
  7 H      0.7367     1.0000     0.2633     1.0178     0.9564     0.0613
  8 H      0.7634     1.0000     0.2366     1.0392     0.9745     0.0647

  Mayer bond orders larger than 0.100000
B(  0-O ,  1-H ) :   0.9828 B(  0-O ,  2-H ) :   0.8415 B(  3-O ,  4-H ) :   0.8411 
B(  3-O ,  5-H ) :   0.9973 B(  6-O ,  7-H ) :   0.9002 B(  6-O ,  8-H ) :   0.9302 



----------------------------------
MP2 DERIVATIVE INTEGRAL GENERATION
----------------------------------


Input Wavefunction Amplitudes       ... 4h2o.temelso.etal.dset.3h2o-orca.engrad-mp2.augccpvtz_job12.mp2tsaa.tmp
Input Correlated Electron Density   ... 4h2o.temelso.etal.dset.3h2o-orca.engrad-mp2.augccpvtz_job12.pmp2re
Input Energy Weighted Density       ... 4h2o.temelso.etal.dset.3h2o-orca.engrad-mp2.augccpvtz_job12.wmp2.tmp
Input SCF Electron Density          ... 4h2o.temelso.etal.dset.3h2o-orca.engrad-mp2.augccpvtz_job12.scfp

One-Electron Terms    ...
                        ... One-Electron Terms done
Prescreening matrices              ... done

Batch handling in the gradient evaluation:
Memory available                      ... 8000.0 MB
Memory per occupied orbital in Q2     ...    7.0 MB
Memory per occupied orbital in Q3     ...    0.1 MB
Total memory requirement per |i>      ...    7.1 MB
Max. Number of orbitals possible      ...   1130
Number of orbitals treated per batch  ...     12
Number of batches to be done          ...      1
Batch   0: i=    3 ...    14

---------------------------------------
MP2 TOTAL ENERGY:     -229.008402428 Eh
---------------------------------------

The final MP2 gradient
  0:  -0.00315538   0.00633128  -0.00386325
  1:   0.00246567  -0.00025409   0.00378122
  2:   0.00323240  -0.00490003  -0.00091024
  3:   0.00564410  -0.00051818  -0.00155163
  4:  -0.00708979  -0.00278675   0.00482932
  5:   0.00024453   0.00382237  -0.00162509
  6:  -0.00975578  -0.00484793  -0.00503343
  7:  -0.00021412   0.00027264  -0.00195675
  8:   0.00862837   0.00288070   0.00632984

-----------------------------------
NORM OF THE MP2 GRADIENT:  0.022906
-----------------------------------

-------------------------   --------------------
FINAL SINGLE POINT ENERGY      -229.008402427648
-------------------------   --------------------


                            ***************************************
                            *     ORCA property calculations      *
                            ***************************************

                                    ---------------------
                                    Active property flags
                                    ---------------------
   (+) Dipole Moment


------------------------------------------------------------------------------
                       ORCA ELECTRIC PROPERTIES CALCULATION
------------------------------------------------------------------------------

Dipole Moment Calculation                       ... on
Quadrupole Moment Calculation                   ... off
Polarizability Calculation                      ... off
GBWName                                         ... 4h2o.temelso.etal.dset.3h2o-orca.engrad-mp2.augccpvtz_job12.gbw
Electron density file                           ... 4h2o.temelso.etal.dset.3h2o-orca.engrad-mp2.augccpvtz_job12.scfp
The origin for moment calculation is the CENTER OF MASS  = ( 0.000003,  0.000004  0.000003)

-------------
DIPOLE MOMENT
-------------
                                X             Y             Z
Electronic contribution:     -0.16942      -0.27733      -0.07676
Nuclear contribution   :      0.56401       0.60929       0.51065
                        -----------------------------------------
Total Dipole Moment    :      0.39459       0.33196       0.43389
                        -----------------------------------------
Magnitude (a.u.)       :      0.67392
Magnitude (Debye)      :      1.71296



--------------------
Rotational spectrum 
--------------------
 
Rotational constants in cm-1:     0.248315     0.194427     0.111758 
Rotational constants in MHz :  7444.287429  5828.772463  3350.411067 

 Dipole components along the rotational axes: 
x,y,z [a.u.] :     0.348436     0.055305     0.574191 
x,y,z [Debye]:     0.885655     0.140574     1.459479 

 

                         *** MP2 UNRELAXED DENSITY ***

------------------------------------------------------------------------------
                       ORCA ELECTRIC PROPERTIES CALCULATION
------------------------------------------------------------------------------

Dipole Moment Calculation                       ... on
Quadrupole Moment Calculation                   ... off
Polarizability Calculation                      ... off
GBWName                                         ... 4h2o.temelso.etal.dset.3h2o-orca.engrad-mp2.augccpvtz_job12.gbw
Electron density file                           ... 4h2o.temelso.etal.dset.3h2o-orca.engrad-mp2.augccpvtz_job12.pmp2ur
The origin for moment calculation is the CENTER OF MASS  = ( 0.000003,  0.000004  0.000003)

-------------
DIPOLE MOMENT
-------------
                                X             Y             Z
Electronic contribution:     -0.17877      -0.28959      -0.08511
Nuclear contribution   :      0.56401       0.60929       0.51065
                        -----------------------------------------
Total Dipole Moment    :      0.38523       0.31969       0.42554
                        -----------------------------------------
Magnitude (a.u.)       :      0.65704
Magnitude (Debye)      :      1.67005



--------------------
Rotational spectrum 
--------------------
 
Rotational constants in cm-1:     0.248315     0.194427     0.111758 
Rotational constants in MHz :  7444.287429  5828.772463  3350.411067 

 Dipole components along the rotational axes: 
x,y,z [a.u.] :     0.335802     0.055376     0.562020 
x,y,z [Debye]:     0.853541     0.140753     1.428541 

 

                           *** MP2 RELAXED DENSITY ***

------------------------------------------------------------------------------
                       ORCA ELECTRIC PROPERTIES CALCULATION
------------------------------------------------------------------------------

Dipole Moment Calculation                       ... on
Quadrupole Moment Calculation                   ... off
Polarizability Calculation                      ... off
GBWName                                         ... 4h2o.temelso.etal.dset.3h2o-orca.engrad-mp2.augccpvtz_job12.gbw
Electron density file                           ... 4h2o.temelso.etal.dset.3h2o-orca.engrad-mp2.augccpvtz_job12.pmp2re
The origin for moment calculation is the CENTER OF MASS  = ( 0.000003,  0.000004  0.000003)

-------------
DIPOLE MOMENT
-------------
                                X             Y             Z
Electronic contribution:     -0.19117      -0.31932      -0.09884
Nuclear contribution   :      0.56401       0.60929       0.51065
                        -----------------------------------------
Total Dipole Moment    :      0.37283       0.28997       0.41182
                        -----------------------------------------
Magnitude (a.u.)       :      0.62664
Magnitude (Debye)      :      1.59280



--------------------
Rotational spectrum 
--------------------
 
Rotational constants in cm-1:     0.248315     0.194427     0.111758 
Rotational constants in MHz :  7444.287429  5828.772463  3350.411067 

 Dipole components along the rotational axes: 
x,y,z [a.u.] :     0.305565     0.053361     0.544484 
x,y,z [Debye]:     0.776686     0.135632     1.383968 

 

Timings for individual modules:

Sum of individual times         ...      101.055 sec (=   1.684 min)
GTO integral calculation        ...        0.892 sec (=   0.015 min)   0.9 %
SCF iterations                  ...       26.200 sec (=   0.437 min)  25.9 %
MP2 module                      ...       73.963 sec (=   1.233 min)  73.2 %



                             ****ORCA TERMINATED NORMALLY****
TOTAL RUN TIME: 0 days 0 hours 18 minutes 58 seconds 377 msec
