
                                 *****************
                                 * O   R   C   A *
                                 *****************

           --- An Ab Initio, DFT and Semiempirical electronic structure package ---

                  #######################################################
                  #                        -***-                        #
                  #          Department of theory and spectroscopy      #
                  #               Directorship: Frank Neese             #
                  #        Max Planck Institute fuer Kohlenforschung    #
                  #                Kaiser Wilhelm Platz 1               #
                  #                 D-45470 Muelheim/Ruhr               #
                  #                      Germany                        #
                  #                                                     #
                  #                  All rights reserved                #
                  #                        -***-                        #
                  #######################################################


                         Program Version 4.2.0 -  RELEASE  -


 With contributions from (in alphabetic order):
   Daniel Aravena         : Magnetic Suceptibility
   Michael Atanasov       : Ab Initio Ligand Field Theory (pilot matlab implementation)
   Alexander A. Auer      : GIAO ZORA, VPT2
   Ute Becker             : Parallelization
   Giovanni Bistoni       : ED, misc. LED, open-shell LED, HFLED
   Martin Brehm           : Molecular dynamics
   Dmytro Bykov           : SCF Hessian
   Vijay G. Chilkuri      : MRCI spin determinant printing, contributions to CSF-ICE
   Dipayan Datta          : RHF DLPNO-CCSD density
   Achintya Kumar Dutta   : EOM-CC, STEOM-CC
   Dmitry Ganyushin       : Spin-Orbit,Spin-Spin,Magnetic field MRCI
   Miquel Garcia          : C-PCM Hessian, Gaussian charge scheme
   Yang Guo               : DLPNO-NEVPT2, CIM, IAO-localization
   Andreas Hansen         : Spin unrestricted coupled pair/coupled cluster methods
   Benjamin Helmich-Paris : CASSCF linear response (MC-RPA)
   Lee Huntington         : MR-EOM, pCC
   Robert Izsak           : Overlap fitted RIJCOSX, COSX-SCS-MP3, EOM
   Christian Kollmar      : KDIIS, OOCD, Brueckner-CCSD(T), CCSD density
   Simone Kossmann        : Meta GGA functionals, TD-DFT gradient, OOMP2, MP2 Hessian
   Martin Krupicka        : AUTO-CI
   Lucas Lang             : DCDCAS
   Dagmar Lenk            : GEPOL surface, SMD
   Dimitrios Liakos       : Extrapolation schemes; Compound Job, initial MDCI parallelization
   Dimitrios Manganas     : Further ROCIS development; embedding schemes
   Dimitrios Pantazis     : SARC Basis sets
   Taras Petrenko         : DFT Hessian,TD-DFT gradient, ASA, ECA, R-Raman, ABS, FL, XAS/XES, NRVS
   Peter Pinski           : DLPNO-MP2, DLPNO-MP2 Gradient
   Christoph Reimann      : Effective Core Potentials
   Marius Retegan         : Local ZFS, SOC
   Christoph Riplinger    : Optimizer, TS searches, QM/MM, DLPNO-CCSD(T), (RO)-DLPNO pert. Triples
   Tobias Risthaus        : Range-separated hybrids, TD-DFT gradient, RPA, STAB
   Michael Roemelt        : Original ROCIS implementation
   Masaaki Saitow         : Open-shell DLPNO-CCSD energy and density
   Barbara Sandhoefer     : DKH picture change effects
   Avijit Sen             : IP-ROCIS
   Kantharuban Sivalingam : CASSCF convergence, NEVPT2, FIC-MRCI
   Bernardo de Souza      : ESD, SOC TD-DFT
   Georgi Stoychev        : AutoAux, RI-MP2 NMR
   Willem Van den Heuvel  : Paramagnetic NMR
   Boris Wezisla          : Elementary symmetry handling
   Frank Wennmohs         : Technical directorship


 We gratefully acknowledge several colleagues who have allowed us to
 interface, adapt or use parts of their codes:
   Stefan Grimme, W. Hujo, H. Kruse,             : VdW corrections, initial TS optimization,
                  C. Bannwarth                     DFT functionals, gCP, sTDA/sTD-DF
   Ed Valeev, F. Pavosevic, A. Kumar             : LibInt (2-el integral package), F12 methods
   Garnet Chan, S. Sharma, J. Yang, R. Olivares  : DMRG
   Ulf Ekstrom                                   : XCFun DFT Library
   Mihaly Kallay                                 : mrcc  (arbitrary order and MRCC methods)
   Andreas Klamt, Michael Diedenhofen            : otool_cosmo (COSMO solvation model)
   Jiri Pittner, Ondrej Demel                    : Mk-CCSD
   Frank Weinhold                                : gennbo (NPA and NBO analysis)
   Christopher J. Cramer and Donald G. Truhlar   : smd solvation model
   Lars Goerigk                                  : TD-DFT with DH, B97 family of functionals
   V. Asgeirsson, H. Jonsson                     : NEB implementation
   FAccTs GmbH                                   : IRC, NEB, NEB-TS, Multilevel, MM, QM/MM, CI optimization
   S Lehtola, MJT Oliveira, MAL Marques          : LibXC Library


 Your calculation uses the libint2 library for the computation of 2-el integrals
 For citations please refer to: http://libint.valeyev.net

 Your ORCA version has been built with support for libXC version: 4.2.3
 For citations please refer to: https://tddft.org/programs/libxc/

 This ORCA versions uses:
   CBLAS   interface :  Fast vector & matrix operations
   LAPACKE interface :  Fast linear algebra routines
   SCALAPACK package :  Parallel linear algebra routines


----- Orbital basis set information -----
Your calculation utilizes the basis: def2-TZVP
   F. Weigend and R. Ahlrichs, Phys. Chem. Chem. Phys. 7, 3297 (2005).

================================================================================
                                        WARNINGS
                       Please study these warnings very carefully!
================================================================================


WARNING: The frozen-core approximation for MP2-gradient calculations is turned on by default.

INFO   : the flag for use of LIBINT has been found!

----- Orbital basis set information -----
Your calculation utilizes the basis: def2-TZVP
   F. Weigend and R. Ahlrichs, Phys. Chem. Chem. Phys. 7, 3297 (2005).

================================================================================
                                        WARNINGS
                       Please study these warnings very carefully!
================================================================================


WARNING: The frozen-core approximation for MP2-gradient calculations is turned on by default.

INFO   : the flag for use of LIBINT has been found!

----- Orbital basis set information -----
Your calculation utilizes the basis: def2-TZVP
   F. Weigend and R. Ahlrichs, Phys. Chem. Chem. Phys. 7, 3297 (2005).

================================================================================
                                        WARNINGS
                       Please study these warnings very carefully!
================================================================================


WARNING: The frozen-core approximation for MP2-gradient calculations is turned on by default.

INFO   : the flag for use of LIBINT has been found!

----- Orbital basis set information -----
Your calculation utilizes the basis: def2-TZVP
   F. Weigend and R. Ahlrichs, Phys. Chem. Chem. Phys. 7, 3297 (2005).

================================================================================
                                        WARNINGS
                       Please study these warnings very carefully!
================================================================================


WARNING: The frozen-core approximation for MP2-gradient calculations is turned on by default.

INFO   : the flag for use of LIBINT has been found!

----- Orbital basis set information -----
Your calculation utilizes the basis: def2-TZVP
   F. Weigend and R. Ahlrichs, Phys. Chem. Chem. Phys. 7, 3297 (2005).

================================================================================
                                        WARNINGS
                       Please study these warnings very carefully!
================================================================================


WARNING: The frozen-core approximation for MP2-gradient calculations is turned on by default.

INFO   : the flag for use of LIBINT has been found!

----- Orbital basis set information -----
Your calculation utilizes the basis: def2-TZVP
   F. Weigend and R. Ahlrichs, Phys. Chem. Chem. Phys. 7, 3297 (2005).

================================================================================
                                        WARNINGS
                       Please study these warnings very carefully!
================================================================================


WARNING: The frozen-core approximation for MP2-gradient calculations is turned on by default.

INFO   : the flag for use of LIBINT has been found!

----- Orbital basis set information -----
Your calculation utilizes the basis: def2-TZVP
   F. Weigend and R. Ahlrichs, Phys. Chem. Chem. Phys. 7, 3297 (2005).

================================================================================
                                        WARNINGS
                       Please study these warnings very carefully!
================================================================================


WARNING: The frozen-core approximation for MP2-gradient calculations is turned on by default.

INFO   : the flag for use of LIBINT has been found!

----- Orbital basis set information -----
Your calculation utilizes the basis: def2-TZVP
   F. Weigend and R. Ahlrichs, Phys. Chem. Chem. Phys. 7, 3297 (2005).

================================================================================
                                        WARNINGS
                       Please study these warnings very carefully!
================================================================================


WARNING: The frozen-core approximation for MP2-gradient calculations is turned on by default.

INFO   : the flag for use of LIBINT has been found!

----- Orbital basis set information -----
Your calculation utilizes the basis: def2-TZVP
   F. Weigend and R. Ahlrichs, Phys. Chem. Chem. Phys. 7, 3297 (2005).

================================================================================
                                        WARNINGS
                       Please study these warnings very carefully!
================================================================================


WARNING: The frozen-core approximation for MP2-gradient calculations is turned on by default.

INFO   : the flag for use of LIBINT has been found!

----- Orbital basis set information -----
Your calculation utilizes the basis: def2-TZVP
   F. Weigend and R. Ahlrichs, Phys. Chem. Chem. Phys. 7, 3297 (2005).

================================================================================
                                        WARNINGS
                       Please study these warnings very carefully!
================================================================================


WARNING: The frozen-core approximation for MP2-gradient calculations is turned on by default.

INFO   : the flag for use of LIBINT has been found!

----- Orbital basis set information -----
Your calculation utilizes the basis: def2-TZVP
   F. Weigend and R. Ahlrichs, Phys. Chem. Chem. Phys. 7, 3297 (2005).

================================================================================
                                        WARNINGS
                       Please study these warnings very carefully!
================================================================================


WARNING: The frozen-core approximation for MP2-gradient calculations is turned on by default.

INFO   : the flag for use of LIBINT has been found!

----- Orbital basis set information -----
Your calculation utilizes the basis: def2-TZVP
   F. Weigend and R. Ahlrichs, Phys. Chem. Chem. Phys. 7, 3297 (2005).

================================================================================
                                        WARNINGS
                       Please study these warnings very carefully!
================================================================================


WARNING: The frozen-core approximation for MP2-gradient calculations is turned on by default.

INFO   : the flag for use of LIBINT has been found!

----- Orbital basis set information -----
Your calculation utilizes the basis: def2-TZVP
   F. Weigend and R. Ahlrichs, Phys. Chem. Chem. Phys. 7, 3297 (2005).

================================================================================
                                        WARNINGS
                       Please study these warnings very carefully!
================================================================================


WARNING: The frozen-core approximation for MP2-gradient calculations is turned on by default.

INFO   : the flag for use of LIBINT has been found!

----- Orbital basis set information -----
Your calculation utilizes the basis: def2-TZVP
   F. Weigend and R. Ahlrichs, Phys. Chem. Chem. Phys. 7, 3297 (2005).

================================================================================
                                        WARNINGS
                       Please study these warnings very carefully!
================================================================================


WARNING: The frozen-core approximation for MP2-gradient calculations is turned on by default.

INFO   : the flag for use of LIBINT has been found!

----- Orbital basis set information -----
Your calculation utilizes the basis: def2-TZVP
   F. Weigend and R. Ahlrichs, Phys. Chem. Chem. Phys. 7, 3297 (2005).

================================================================================
                                        WARNINGS
                       Please study these warnings very carefully!
================================================================================


WARNING: The frozen-core approximation for MP2-gradient calculations is turned on by default.

INFO   : the flag for use of LIBINT has been found!

----- Orbital basis set information -----
Your calculation utilizes the basis: def2-TZVP
   F. Weigend and R. Ahlrichs, Phys. Chem. Chem. Phys. 7, 3297 (2005).

================================================================================
                                        WARNINGS
                       Please study these warnings very carefully!
================================================================================


WARNING: The frozen-core approximation for MP2-gradient calculations is turned on by default.

INFO   : the flag for use of LIBINT has been found!

----- Orbital basis set information -----
Your calculation utilizes the basis: def2-TZVP
   F. Weigend and R. Ahlrichs, Phys. Chem. Chem. Phys. 7, 3297 (2005).

================================================================================
                                        WARNINGS
                       Please study these warnings very carefully!
================================================================================


WARNING: The frozen-core approximation for MP2-gradient calculations is turned on by default.

INFO   : the flag for use of LIBINT has been found!

----- Orbital basis set information -----
Your calculation utilizes the basis: def2-TZVP
   F. Weigend and R. Ahlrichs, Phys. Chem. Chem. Phys. 7, 3297 (2005).

================================================================================
                                        WARNINGS
                       Please study these warnings very carefully!
================================================================================


WARNING: The frozen-core approximation for MP2-gradient calculations is turned on by default.

INFO   : the flag for use of LIBINT has been found!

----- Orbital basis set information -----
Your calculation utilizes the basis: def2-TZVP
   F. Weigend and R. Ahlrichs, Phys. Chem. Chem. Phys. 7, 3297 (2005).

================================================================================
                                        WARNINGS
                       Please study these warnings very carefully!
================================================================================


WARNING: The frozen-core approximation for MP2-gradient calculations is turned on by default.

INFO   : the flag for use of LIBINT has been found!

----- Orbital basis set information -----
Your calculation utilizes the basis: def2-TZVP
   F. Weigend and R. Ahlrichs, Phys. Chem. Chem. Phys. 7, 3297 (2005).

================================================================================
                                        WARNINGS
                       Please study these warnings very carefully!
================================================================================


WARNING: The frozen-core approximation for MP2-gradient calculations is turned on by default.

INFO   : the flag for use of LIBINT has been found!

----- Orbital basis set information -----
Your calculation utilizes the basis: def2-TZVP
   F. Weigend and R. Ahlrichs, Phys. Chem. Chem. Phys. 7, 3297 (2005).

================================================================================
                                        WARNINGS
                       Please study these warnings very carefully!
================================================================================


WARNING: The frozen-core approximation for MP2-gradient calculations is turned on by default.

INFO   : the flag for use of LIBINT has been found!

----- Orbital basis set information -----
Your calculation utilizes the basis: def2-TZVP
   F. Weigend and R. Ahlrichs, Phys. Chem. Chem. Phys. 7, 3297 (2005).

================================================================================
                                        WARNINGS
                       Please study these warnings very carefully!
================================================================================


WARNING: The frozen-core approximation for MP2-gradient calculations is turned on by default.

INFO   : the flag for use of LIBINT has been found!

----- Orbital basis set information -----
Your calculation utilizes the basis: def2-TZVP
   F. Weigend and R. Ahlrichs, Phys. Chem. Chem. Phys. 7, 3297 (2005).

================================================================================
                                        WARNINGS
                       Please study these warnings very carefully!
================================================================================


WARNING: The frozen-core approximation for MP2-gradient calculations is turned on by default.

INFO   : the flag for use of LIBINT has been found!

----- Orbital basis set information -----
Your calculation utilizes the basis: def2-TZVP
   F. Weigend and R. Ahlrichs, Phys. Chem. Chem. Phys. 7, 3297 (2005).

================================================================================
                                        WARNINGS
                       Please study these warnings very carefully!
================================================================================


WARNING: The frozen-core approximation for MP2-gradient calculations is turned on by default.

INFO   : the flag for use of LIBINT has been found!

----- Orbital basis set information -----
Your calculation utilizes the basis: def2-TZVP
   F. Weigend and R. Ahlrichs, Phys. Chem. Chem. Phys. 7, 3297 (2005).

================================================================================
                                        WARNINGS
                       Please study these warnings very carefully!
================================================================================


WARNING: The frozen-core approximation for MP2-gradient calculations is turned on by default.

INFO   : the flag for use of LIBINT has been found!

----- Orbital basis set information -----
Your calculation utilizes the basis: def2-TZVP
   F. Weigend and R. Ahlrichs, Phys. Chem. Chem. Phys. 7, 3297 (2005).

================================================================================
                                        WARNINGS
                       Please study these warnings very carefully!
================================================================================


WARNING: The frozen-core approximation for MP2-gradient calculations is turned on by default.

INFO   : the flag for use of LIBINT has been found!

----- Orbital basis set information -----
Your calculation utilizes the basis: def2-TZVP
   F. Weigend and R. Ahlrichs, Phys. Chem. Chem. Phys. 7, 3297 (2005).

================================================================================
                                        WARNINGS
                       Please study these warnings very carefully!
================================================================================


WARNING: The frozen-core approximation for MP2-gradient calculations is turned on by default.

INFO   : the flag for use of LIBINT has been found!

----- Orbital basis set information -----
Your calculation utilizes the basis: def2-TZVP
   F. Weigend and R. Ahlrichs, Phys. Chem. Chem. Phys. 7, 3297 (2005).

================================================================================
                                        WARNINGS
                       Please study these warnings very carefully!
================================================================================


WARNING: The frozen-core approximation for MP2-gradient calculations is turned on by default.

INFO   : the flag for use of LIBINT has been found!

----- Orbital basis set information -----
Your calculation utilizes the basis: def2-TZVP
   F. Weigend and R. Ahlrichs, Phys. Chem. Chem. Phys. 7, 3297 (2005).

================================================================================
                                        WARNINGS
                       Please study these warnings very carefully!
================================================================================


WARNING: The frozen-core approximation for MP2-gradient calculations is turned on by default.

INFO   : the flag for use of LIBINT has been found!

----- Orbital basis set information -----
Your calculation utilizes the basis: def2-TZVP
   F. Weigend and R. Ahlrichs, Phys. Chem. Chem. Phys. 7, 3297 (2005).

================================================================================
                                        WARNINGS
                       Please study these warnings very carefully!
================================================================================


WARNING: The frozen-core approximation for MP2-gradient calculations is turned on by default.

INFO   : the flag for use of LIBINT has been found!

----- Orbital basis set information -----
Your calculation utilizes the basis: def2-TZVP
   F. Weigend and R. Ahlrichs, Phys. Chem. Chem. Phys. 7, 3297 (2005).

================================================================================
                                        WARNINGS
                       Please study these warnings very carefully!
================================================================================


WARNING: The frozen-core approximation for MP2-gradient calculations is turned on by default.

INFO   : the flag for use of LIBINT has been found!

----- Orbital basis set information -----
Your calculation utilizes the basis: def2-TZVP
   F. Weigend and R. Ahlrichs, Phys. Chem. Chem. Phys. 7, 3297 (2005).

================================================================================
                                        WARNINGS
                       Please study these warnings very carefully!
================================================================================


WARNING: The frozen-core approximation for MP2-gradient calculations is turned on by default.

INFO   : the flag for use of LIBINT has been found!

----- Orbital basis set information -----
Your calculation utilizes the basis: def2-TZVP
   F. Weigend and R. Ahlrichs, Phys. Chem. Chem. Phys. 7, 3297 (2005).

================================================================================
                                        WARNINGS
                       Please study these warnings very carefully!
================================================================================


WARNING: The frozen-core approximation for MP2-gradient calculations is turned on by default.

INFO   : the flag for use of LIBINT has been found!

----- Orbital basis set information -----
Your calculation utilizes the basis: def2-TZVP
   F. Weigend and R. Ahlrichs, Phys. Chem. Chem. Phys. 7, 3297 (2005).

================================================================================
                                        WARNINGS
                       Please study these warnings very carefully!
================================================================================


WARNING: The frozen-core approximation for MP2-gradient calculations is turned on by default.

INFO   : the flag for use of LIBINT has been found!

----- Orbital basis set information -----
Your calculation utilizes the basis: def2-TZVP
   F. Weigend and R. Ahlrichs, Phys. Chem. Chem. Phys. 7, 3297 (2005).

================================================================================
                                        WARNINGS
                       Please study these warnings very carefully!
================================================================================


WARNING: The frozen-core approximation for MP2-gradient calculations is turned on by default.

INFO   : the flag for use of LIBINT has been found!

----- Orbital basis set information -----
Your calculation utilizes the basis: def2-TZVP
   F. Weigend and R. Ahlrichs, Phys. Chem. Chem. Phys. 7, 3297 (2005).

================================================================================
                                        WARNINGS
                       Please study these warnings very carefully!
================================================================================


WARNING: The frozen-core approximation for MP2-gradient calculations is turned on by default.

INFO   : the flag for use of LIBINT has been found!

----- Orbital basis set information -----
Your calculation utilizes the basis: def2-TZVP
   F. Weigend and R. Ahlrichs, Phys. Chem. Chem. Phys. 7, 3297 (2005).

================================================================================
                                        WARNINGS
                       Please study these warnings very carefully!
================================================================================


WARNING: The frozen-core approximation for MP2-gradient calculations is turned on by default.

INFO   : the flag for use of LIBINT has been found!

----- Orbital basis set information -----
Your calculation utilizes the basis: def2-TZVP
   F. Weigend and R. Ahlrichs, Phys. Chem. Chem. Phys. 7, 3297 (2005).

================================================================================
                                        WARNINGS
                       Please study these warnings very carefully!
================================================================================


WARNING: The frozen-core approximation for MP2-gradient calculations is turned on by default.

INFO   : the flag for use of LIBINT has been found!

================================================================================
                                       INPUT FILE
================================================================================
NAME = 48mecn.sphere.gfn2.md.500k.prod1.3mecn.cm.17.dset.1mecn-orca.engrad-mp2.def2tzvp-12600.to.12637.inp
|  1> # 48mecn.sphere.gfn2.md.500k.prod1.3mecn.cm.17.dset.1mecn-orca.engrad-mp2.def2tzvp-12600.to.12637
|  2> ! MP2 def2-TZVP EnGrad TightSCF FrozenCore
|  3> 
|  4> %pal
|  5>     nprocs 12
|  6> end
|  7> 
|  8> %maxcore 8000
|  9> 
| 10> %scf
| 11>     ConvForced true
| 12> end
| 13> 
| 14> *xyz 0 1
| 15> C   0.775159414  -0.643568163  -0.743475632
| 16> H   0.196494356  -1.358560078  -1.387014388
| 17> H   1.716507880  -1.201810031  -0.388188073
| 18> H   1.135992908   0.205954356  -1.377091925
| 19> C  -0.103710630   0.030383998   0.150275825
| 20> N  -0.795115571   0.695178637   0.735455129
| 21> *
| 22> 
| 23> 
| 24> $new_job
| 25> 
| 26> # 48mecn.sphere.gfn2.md.500k.prod1.3mecn.cm.17.dset.1mecn-orca.engrad-mp2.def2tzvp-12600.to.12637
| 27> ! MP2 def2-TZVP EnGrad TightSCF FrozenCore
| 28> 
| 29> %pal
| 30>     nprocs 12
| 31> end
| 32> 
| 33> %maxcore 8000
| 34> 
| 35> %scf
| 36>     ConvForced true
| 37> end
| 38> 
| 39> *xyz 0 1
| 40> C   0.806746019  -1.022358877   0.001539128
| 41> H   0.109010278  -1.673739780  -0.629696159
| 42> H   0.818779452  -1.431856546   0.977515203
| 43> H   1.737451278  -0.759333749  -0.389239893
| 44> C  -0.057005861   0.157352888  -0.021916536
| 45> N  -0.834632086   1.019789272   0.020452757
| 46> *
| 47> 
| 48> 
| 49> $new_job
| 50> 
| 51> # 48mecn.sphere.gfn2.md.500k.prod1.3mecn.cm.17.dset.1mecn-orca.engrad-mp2.def2tzvp-12600.to.12637
| 52> ! MP2 def2-TZVP EnGrad TightSCF FrozenCore
| 53> 
| 54> %pal
| 55>     nprocs 12
| 56> end
| 57> 
| 58> %maxcore 8000
| 59> 
| 60> %scf
| 61>     ConvForced true
| 62> end
| 63> 
| 64> *xyz 0 1
| 65> C   1.136282801  -0.532258416   0.116112882
| 66> H   1.819172515  -0.113516845  -0.637995858
| 67> H   1.031629308  -1.556776225  -0.066051422
| 68> H   1.413218258  -0.321370272   1.168167700
| 69> C  -0.102464931   0.124668726   0.007483995
| 70> N  -1.193251177   0.492792748  -0.139372286
| 71> *
| 72> 
| 73> 
| 74> $new_job
| 75> 
| 76> # 48mecn.sphere.gfn2.md.500k.prod1.3mecn.cm.17.dset.1mecn-orca.engrad-mp2.def2tzvp-12600.to.12637
| 77> ! MP2 def2-TZVP EnGrad TightSCF FrozenCore
| 78> 
| 79> %pal
| 80>     nprocs 12
| 81> end
| 82> 
| 83> %maxcore 8000
| 84> 
| 85> %scf
| 86>     ConvForced true
| 87> end
| 88> 
| 89> *xyz 0 1
| 90> C   0.426201456  -1.197799183  -0.295649717
| 91> H  -0.406357591  -1.745372418  -0.793447918
| 92> H   0.823690224  -1.897180744   0.384815584
| 93> H   1.150180737  -0.875885039  -0.958141553
| 94> C  -0.049498364   0.160503415   0.016293148
| 95> N  -0.435789571   1.214540037   0.337876964
| 96> *
| 97> 
| 98> 
| 99> $new_job
|100> 
|101> # 48mecn.sphere.gfn2.md.500k.prod1.3mecn.cm.17.dset.1mecn-orca.engrad-mp2.def2tzvp-12600.to.12637
|102> ! MP2 def2-TZVP EnGrad TightSCF FrozenCore
|103> 
|104> %pal
|105>     nprocs 12
|106> end
|107> 
|108> %maxcore 8000
|109> 
|110> %scf
|111>     ConvForced true
|112> end
|113> 
|114> *xyz 0 1
|115> C   0.888644009   0.122715894  -0.895303594
|116> H   1.148890784  -0.713094447  -1.530826113
|117> H   1.863385041   0.631700717  -0.500334385
|118> H   0.530479659   0.872461296  -1.606337472
|119> C  -0.075036107   0.016788254   0.159195754
|120> N  -0.952536525  -0.176537387   0.892902521
|121> *
|122> 
|123> 
|124> $new_job
|125> 
|126> # 48mecn.sphere.gfn2.md.500k.prod1.3mecn.cm.17.dset.1mecn-orca.engrad-mp2.def2tzvp-12600.to.12637
|127> ! MP2 def2-TZVP EnGrad TightSCF FrozenCore
|128> 
|129> %pal
|130>     nprocs 12
|131> end
|132> 
|133> %maxcore 8000
|134> 
|135> %scf
|136>     ConvForced true
|137> end
|138> 
|139> *xyz 0 1
|140> C  -0.800778391   0.922753682  -0.457473639
|141> H  -1.514965508   1.093166373   0.316408631
|142> H  -0.949777700   0.801453247  -1.591333818
|143> H  -0.105791284   1.742332771  -0.411803961
|144> C   0.094972596  -0.111408199   0.037527978
|145> N   0.790146579  -0.957374635   0.481445487
|146> *
|147> 
|148> 
|149> $new_job
|150> 
|151> # 48mecn.sphere.gfn2.md.500k.prod1.3mecn.cm.17.dset.1mecn-orca.engrad-mp2.def2tzvp-12600.to.12637
|152> ! MP2 def2-TZVP EnGrad TightSCF FrozenCore
|153> 
|154> %pal
|155>     nprocs 12
|156> end
|157> 
|158> %maxcore 8000
|159> 
|160> %scf
|161>     ConvForced true
|162> end
|163> 
|164> *xyz 0 1
|165> C  -0.103045427  -1.268251134   0.050431884
|166> H  -1.151253612  -1.359048606  -0.010807394
|167> H   0.190726991  -1.634545119   1.060704184
|168> H   0.334508203  -1.826858754  -0.802841317
|169> C   0.078346646   0.152797516  -0.059811831
|170> N   0.066223076   1.303286890  -0.009734314
|171> *
|172> 
|173> 
|174> $new_job
|175> 
|176> # 48mecn.sphere.gfn2.md.500k.prod1.3mecn.cm.17.dset.1mecn-orca.engrad-mp2.def2tzvp-12600.to.12637
|177> ! MP2 def2-TZVP EnGrad TightSCF FrozenCore
|178> 
|179> %pal
|180>     nprocs 12
|181> end
|182> 
|183> %maxcore 8000
|184> 
|185> %scf
|186>     ConvForced true
|187> end
|188> 
|189> *xyz 0 1
|190> C   0.004250502  -0.868174641  -0.906261009
|191> H   0.785685704  -0.678602217  -1.690607727
|192> H  -1.024005499  -0.768523656  -1.555652673
|193> H   0.310915439  -1.955793961  -0.607271465
|194> C   0.019323653   0.103616487   0.101674577
|195> N  -0.025436958   0.900417618   0.967163279
|196> *
|197> 
|198> 
|199> $new_job
|200> 
|201> # 48mecn.sphere.gfn2.md.500k.prod1.3mecn.cm.17.dset.1mecn-orca.engrad-mp2.def2tzvp-12600.to.12637
|202> ! MP2 def2-TZVP EnGrad TightSCF FrozenCore
|203> 
|204> %pal
|205>     nprocs 12
|206> end
|207> 
|208> %maxcore 8000
|209> 
|210> %scf
|211>     ConvForced true
|212> end
|213> 
|214> *xyz 0 1
|215> C   0.892595035  -0.877432850   0.248265679
|216> H   0.267000094  -1.777525081   0.614970568
|217> H   1.670655108  -0.632056843   0.900978189
|218> H   1.352222922  -1.167412942  -0.683892620
|219> C  -0.051674711   0.204957816  -0.014912463
|220> N  -0.957759221   0.833988009  -0.259956194
|221> *
|222> 
|223> 
|224> $new_job
|225> 
|226> # 48mecn.sphere.gfn2.md.500k.prod1.3mecn.cm.17.dset.1mecn-orca.engrad-mp2.def2tzvp-12600.to.12637
|227> ! MP2 def2-TZVP EnGrad TightSCF FrozenCore
|228> 
|229> %pal
|230>     nprocs 12
|231> end
|232> 
|233> %maxcore 8000
|234> 
|235> %scf
|236>     ConvForced true
|237> end
|238> 
|239> *xyz 0 1
|240> C  -0.896754899   0.846794717  -0.176746152
|241> H  -0.717071635   1.823007494   0.349929442
|242> H  -1.840975091   0.491895059   0.193262218
|243> H  -1.119760773   0.997594020  -1.200418713
|244> C   0.112119835  -0.083395821   0.086058241
|245> N   0.937411944  -0.892917176   0.125050084
|246> *
|247> 
|248> 
|249> $new_job
|250> 
|251> # 48mecn.sphere.gfn2.md.500k.prod1.3mecn.cm.17.dset.1mecn-orca.engrad-mp2.def2tzvp-12600.to.12637
|252> ! MP2 def2-TZVP EnGrad TightSCF FrozenCore
|253> 
|254> %pal
|255>     nprocs 12
|256> end
|257> 
|258> %maxcore 8000
|259> 
|260> %scf
|261>     ConvForced true
|262> end
|263> 
|264> *xyz 0 1
|265> C  -1.253174957  -0.306296178  -0.054848092
|266> H  -1.954531891   0.537233001  -0.020741937
|267> H  -1.397874808  -0.681170417   0.971046286
|268> H  -1.459438534  -0.842584563  -0.960888750
|269> C   0.153766317   0.098079091   0.087814473
|270> N   1.288910030   0.249518274  -0.027504915
|271> *
|272> 
|273> 
|274> $new_job
|275> 
|276> # 48mecn.sphere.gfn2.md.500k.prod1.3mecn.cm.17.dset.1mecn-orca.engrad-mp2.def2tzvp-12600.to.12637
|277> ! MP2 def2-TZVP EnGrad TightSCF FrozenCore
|278> 
|279> %pal
|280>     nprocs 12
|281> end
|282> 
|283> %maxcore 8000
|284> 
|285> %scf
|286>     ConvForced true
|287> end
|288> 
|289> *xyz 0 1
|290> C  -0.449042410  -0.986773937  -0.621363223
|291> H   0.395083058  -1.170752135  -1.468199713
|292> H  -1.385435397  -0.794383298  -1.159985652
|293> H  -0.510392424  -2.011092974  -0.094436051
|294> C  -0.028445752   0.158326223   0.100771568
|295> N   0.517401825   0.996451466   0.642281031
|296> *
|297> 
|298> 
|299> $new_job
|300> 
|301> # 48mecn.sphere.gfn2.md.500k.prod1.3mecn.cm.17.dset.1mecn-orca.engrad-mp2.def2tzvp-12600.to.12637
|302> ! MP2 def2-TZVP EnGrad TightSCF FrozenCore
|303> 
|304> %pal
|305>     nprocs 12
|306> end
|307> 
|308> %maxcore 8000
|309> 
|310> %scf
|311>     ConvForced true
|312> end
|313> 
|314> *xyz 0 1
|315> C  -0.647850217  -1.140254578   0.124142284
|316> H  -0.407959052  -1.705441979   1.025989687
|317> H  -0.301400004  -1.853456669  -0.739551785
|318> H  -1.788821365  -0.951804181  -0.007067814
|319> C   0.080172628   0.161597513   0.021392664
|320> N   0.666504379   1.163704572  -0.144888945
|321> *
|322> 
|323> 
|324> $new_job
|325> 
|326> # 48mecn.sphere.gfn2.md.500k.prod1.3mecn.cm.17.dset.1mecn-orca.engrad-mp2.def2tzvp-12600.to.12637
|327> ! MP2 def2-TZVP EnGrad TightSCF FrozenCore
|328> 
|329> %pal
|330>     nprocs 12
|331> end
|332> 
|333> %maxcore 8000
|334> 
|335> %scf
|336>     ConvForced true
|337> end
|338> 
|339> *xyz 0 1
|340> C   0.680747731   0.700137229   0.842954136
|341> H  -0.218568797   1.040828394   1.459521474
|342> H   1.139197158   1.487295011   0.371925319
|343> H   1.448114299   0.154554129   1.265143207
|344> C  -0.091652440  -0.091416440  -0.107919584
|345> N  -0.675554899  -0.714971832  -0.853060931
|346> *
|347> 
|348> 
|349> $new_job
|350> 
|351> # 48mecn.sphere.gfn2.md.500k.prod1.3mecn.cm.17.dset.1mecn-orca.engrad-mp2.def2tzvp-12600.to.12637
|352> ! MP2 def2-TZVP EnGrad TightSCF FrozenCore
|353> 
|354> %pal
|355>     nprocs 12
|356> end
|357> 
|358> %maxcore 8000
|359> 
|360> %scf
|361>     ConvForced true
|362> end
|363> 
|364> *xyz 0 1
|365> C  -0.731517948   0.996009499   0.229019310
|366> H  -1.044796359   0.921681810   1.343514608
|367> H  -1.550677491   0.803530160  -0.338482693
|368> H  -0.300839428   1.982065058   0.010771553
|369> C   0.135910398  -0.101580536  -0.014739136
|370> N   0.719100357  -1.033673546  -0.256823940
|371> *
|372> 
|373> 
|374> $new_job
|375> 
|376> # 48mecn.sphere.gfn2.md.500k.prod1.3mecn.cm.17.dset.1mecn-orca.engrad-mp2.def2tzvp-12600.to.12637
|377> ! MP2 def2-TZVP EnGrad TightSCF FrozenCore
|378> 
|379> %pal
|380>     nprocs 12
|381> end
|382> 
|383> %maxcore 8000
|384> 
|385> %scf
|386>     ConvForced true
|387> end
|388> 
|389> *xyz 0 1
|390> C   0.547410094  -0.857393443  -0.697615479
|391> H  -0.006335945  -1.507919843  -1.377108097
|392> H   1.383624783  -1.400688797  -0.214992940
|393> H   1.143771639  -0.447457057  -1.504199345
|394> C  -0.108537085   0.057804280   0.127292209
|395> N  -0.557709201   0.927083008   0.711810912
|396> *
|397> 
|398> 
|399> $new_job
|400> 
|401> # 48mecn.sphere.gfn2.md.500k.prod1.3mecn.cm.17.dset.1mecn-orca.engrad-mp2.def2tzvp-12600.to.12637
|402> ! MP2 def2-TZVP EnGrad TightSCF FrozenCore
|403> 
|404> %pal
|405>     nprocs 12
|406> end
|407> 
|408> %maxcore 8000
|409> 
|410> %scf
|411>     ConvForced true
|412> end
|413> 
|414> *xyz 0 1
|415> C   0.910801516   0.305954547   0.850823661
|416> H   0.624444012   0.928357279   1.661100649
|417> H   1.635810276   0.914557211   0.315692410
|418> H   1.366949124  -0.562882993   1.239900245
|419> C  -0.119499391  -0.031090580  -0.126839642
|420> N  -0.939487270  -0.327783257  -0.852227916
|421> *
|422> 
|423> 
|424> $new_job
|425> 
|426> # 48mecn.sphere.gfn2.md.500k.prod1.3mecn.cm.17.dset.1mecn-orca.engrad-mp2.def2tzvp-12600.to.12637
|427> ! MP2 def2-TZVP EnGrad TightSCF FrozenCore
|428> 
|429> %pal
|430>     nprocs 12
|431> end
|432> 
|433> %maxcore 8000
|434> 
|435> %scf
|436>     ConvForced true
|437> end
|438> 
|439> *xyz 0 1
|440> C  -1.228455017   0.423351496  -0.244778171
|441> H  -1.152676962   1.341488321  -0.897627284
|442> H  -1.615074591   0.510588041   0.768933518
|443> H  -1.728320183  -0.549262135  -0.635065846
|444> C   0.158347453  -0.041132410   0.046331158
|445> N   1.241064621  -0.421472611   0.225112090
|446> *
|447> 
|448> 
|449> $new_job
|450> 
|451> # 48mecn.sphere.gfn2.md.500k.prod1.3mecn.cm.17.dset.1mecn-orca.engrad-mp2.def2tzvp-12600.to.12637
|452> ! MP2 def2-TZVP EnGrad TightSCF FrozenCore
|453> 
|454> %pal
|455>     nprocs 12
|456> end
|457> 
|458> %maxcore 8000
|459> 
|460> %scf
|461>     ConvForced true
|462> end
|463> 
|464> *xyz 0 1
|465> C   0.594785002  -0.749283578  -0.893251011
|466> H   0.632291221  -0.214862849  -1.932741693
|467> H  -0.035113116  -1.739725938  -1.028021457
|468> H   1.566222960  -1.159806105  -0.703964423
|469> C  -0.072105065   0.127511883   0.133552235
|470> N  -0.603832604   0.757226580   0.915089531
|471> *
|472> 
|473> 
|474> $new_job
|475> 
|476> # 48mecn.sphere.gfn2.md.500k.prod1.3mecn.cm.17.dset.1mecn-orca.engrad-mp2.def2tzvp-12600.to.12637
|477> ! MP2 def2-TZVP EnGrad TightSCF FrozenCore
|478> 
|479> %pal
|480>     nprocs 12
|481> end
|482> 
|483> %maxcore 8000
|484> 
|485> %scf
|486>     ConvForced true
|487> end
|488> 
|489> *xyz 0 1
|490> C   0.002215021   0.672386267   1.060203970
|491> H   1.002816708   1.097150952   1.000070033
|492> H  -0.213988995   0.056980734   1.955825608
|493> H  -0.663245594   1.581241459   0.929387988
|494> C  -0.139933040  -0.067179282  -0.158518380
|495> N   0.109047890  -0.715750714  -1.052704187
|496> *
|497> 
|498> 
|499> $new_job
|500> 
|501> # 48mecn.sphere.gfn2.md.500k.prod1.3mecn.cm.17.dset.1mecn-orca.engrad-mp2.def2tzvp-12600.to.12637
|502> ! MP2 def2-TZVP EnGrad TightSCF FrozenCore
|503> 
|504> %pal
|505>     nprocs 12
|506> end
|507> 
|508> %maxcore 8000
|509> 
|510> %scf
|511>     ConvForced true
|512> end
|513> 
|514> *xyz 0 1
|515> C   0.612033428  -0.919078750  -0.696774924
|516> H   1.383755610  -0.752634479  -1.421635639
|517> H  -0.183292570  -1.338065816  -1.350546376
|518> H   0.865816739  -1.659769753   0.025225865
|519> C  -0.079421600   0.164166607   0.055398656
|520> N  -0.605360140   0.917154951   0.747596976
|521> *
|522> 
|523> 
|524> $new_job
|525> 
|526> # 48mecn.sphere.gfn2.md.500k.prod1.3mecn.cm.17.dset.1mecn-orca.engrad-mp2.def2tzvp-12600.to.12637
|527> ! MP2 def2-TZVP EnGrad TightSCF FrozenCore
|528> 
|529> %pal
|530>     nprocs 12
|531> end
|532> 
|533> %maxcore 8000
|534> 
|535> %scf
|536>     ConvForced true
|537> end
|538> 
|539> *xyz 0 1
|540> C  -0.839550489   0.900219858  -0.129177433
|541> H  -1.810710163   0.573432421  -0.698417777
|542> H  -0.423331361   1.691739017  -0.768536195
|543> H  -1.129676145   1.186217291   0.891495364
|544> C   0.095186547  -0.125904079  -0.068231173
|545> N   0.880281586  -0.912271749   0.210672427
|546> *
|547> 
|548> 
|549> $new_job
|550> 
|551> # 48mecn.sphere.gfn2.md.500k.prod1.3mecn.cm.17.dset.1mecn-orca.engrad-mp2.def2tzvp-12600.to.12637
|552> ! MP2 def2-TZVP EnGrad TightSCF FrozenCore
|553> 
|554> %pal
|555>     nprocs 12
|556> end
|557> 
|558> %maxcore 8000
|559> 
|560> %scf
|561>     ConvForced true
|562> end
|563> 
|564> *xyz 0 1
|565> C  -0.412139609   0.809527531  -0.854145248
|566> H   0.405275819   1.148645563  -1.442690292
|567> H  -1.120364601   1.667023896  -0.484039513
|568> H  -0.944227167   0.053694284  -1.474692484
|569> C   0.083652707  -0.034729414   0.139219732
|570> N   0.401053036  -0.870805410   0.857753111
|571> *
|572> 
|573> 
|574> $new_job
|575> 
|576> # 48mecn.sphere.gfn2.md.500k.prod1.3mecn.cm.17.dset.1mecn-orca.engrad-mp2.def2tzvp-12600.to.12637
|577> ! MP2 def2-TZVP EnGrad TightSCF FrozenCore
|578> 
|579> %pal
|580>     nprocs 12
|581> end
|582> 
|583> %maxcore 8000
|584> 
|585> %scf
|586>     ConvForced true
|587> end
|588> 
|589> *xyz 0 1
|590> C  -1.187808436   0.341302873  -0.230492424
|591> H  -1.256206294   1.204176297  -0.837052347
|592> H  -1.838711375   0.539530339   0.620350660
|593> H  -1.670886894  -0.607350916  -0.799799786
|594> C   0.139860396   0.000508050   0.107492461
|595> N   1.241473041  -0.374847639   0.178607339
|596> *
|597> 
|598> 
|599> $new_job
|600> 
|601> # 48mecn.sphere.gfn2.md.500k.prod1.3mecn.cm.17.dset.1mecn-orca.engrad-mp2.def2tzvp-12600.to.12637
|602> ! MP2 def2-TZVP EnGrad TightSCF FrozenCore
|603> 
|604> %pal
|605>     nprocs 12
|606> end
|607> 
|608> %maxcore 8000
|609> 
|610> %scf
|611>     ConvForced true
|612> end
|613> 
|614> *xyz 0 1
|615> C   0.581139283  -0.981977553  -0.523463078
|616> H   0.078600432  -1.030049489  -1.491693224
|617> H   0.243116696  -1.964388286  -0.124179261
|618> H   1.682472629  -0.937810724  -0.659978582
|619> C  -0.060544965   0.123835193   0.065215000
|620> N  -0.590588188   1.018748091   0.556677887
|621> *
|622> 
|623> 
|624> $new_job
|625> 
|626> # 48mecn.sphere.gfn2.md.500k.prod1.3mecn.cm.17.dset.1mecn-orca.engrad-mp2.def2tzvp-12600.to.12637
|627> ! MP2 def2-TZVP EnGrad TightSCF FrozenCore
|628> 
|629> %pal
|630>     nprocs 12
|631> end
|632> 
|633> %maxcore 8000
|634> 
|635> %scf
|636>     ConvForced true
|637> end
|638> 
|639> *xyz 0 1
|640> C  -0.547006795  -0.045718267   1.137597275
|641> H  -1.202105794   0.882290944   1.348145969
|642> H   0.163677146  -0.088784994   1.997056371
|643> H  -1.037261773  -0.991151480   1.217368405
|644> C   0.130725682  -0.002084870  -0.108716255
|645> N   0.506291289   0.055209759  -1.210500520
|646> *
|647> 
|648> 
|649> $new_job
|650> 
|651> # 48mecn.sphere.gfn2.md.500k.prod1.3mecn.cm.17.dset.1mecn-orca.engrad-mp2.def2tzvp-12600.to.12637
|652> ! MP2 def2-TZVP EnGrad TightSCF FrozenCore
|653> 
|654> %pal
|655>     nprocs 12
|656> end
|657> 
|658> %maxcore 8000
|659> 
|660> %scf
|661>     ConvForced true
|662> end
|663> 
|664> *xyz 0 1
|665> C  -0.320451714  -1.254988142   0.022588714
|666> H  -1.317287251  -1.601404332  -0.188642132
|667> H  -0.108051974  -1.557604071   1.099879555
|668> H   0.404956938  -1.949408482  -0.506668709
|669> C   0.014537722   0.177568749  -0.015215088
|670> N   0.335723433   1.291395652  -0.035433357
|671> *
|672> 
|673> 
|674> $new_job
|675> 
|676> # 48mecn.sphere.gfn2.md.500k.prod1.3mecn.cm.17.dset.1mecn-orca.engrad-mp2.def2tzvp-12600.to.12637
|677> ! MP2 def2-TZVP EnGrad TightSCF FrozenCore
|678> 
|679> %pal
|680>     nprocs 12
|681> end
|682> 
|683> %maxcore 8000
|684> 
|685> %scf
|686>     ConvForced true
|687> end
|688> 
|689> *xyz 0 1
|690> C   0.642307930  -1.011545472  -0.379415326
|691> H   0.126984825  -1.327007915  -1.248826799
|692> H   0.780142994  -1.738489340   0.394307665
|693> H   1.691487912  -0.699021722  -0.577191399
|694> C  -0.119239888   0.077091062   0.112826223
|695> N  -0.635481478   1.072111629   0.331602245
|696> *
|697> 
|698> 
|699> $new_job
|700> 
|701> # 48mecn.sphere.gfn2.md.500k.prod1.3mecn.cm.17.dset.1mecn-orca.engrad-mp2.def2tzvp-12600.to.12637
|702> ! MP2 def2-TZVP EnGrad TightSCF FrozenCore
|703> 
|704> %pal
|705>     nprocs 12
|706> end
|707> 
|708> %maxcore 8000
|709> 
|710> %scf
|711>     ConvForced true
|712> end
|713> 
|714> *xyz 0 1
|715> C   0.438234210   0.468457451   1.130475428
|716> H   0.082785045   0.117303005   2.022716083
|717> H   0.118799908   1.445289094   1.138669250
|718> H   1.485278308   0.384135557   0.984160734
|719> C  -0.101424074  -0.070078679  -0.134627262
|720> N  -0.410171848  -0.481661616  -1.152169774
|721> *
|722> 
|723> 
|724> $new_job
|725> 
|726> # 48mecn.sphere.gfn2.md.500k.prod1.3mecn.cm.17.dset.1mecn-orca.engrad-mp2.def2tzvp-12600.to.12637
|727> ! MP2 def2-TZVP EnGrad TightSCF FrozenCore
|728> 
|729> %pal
|730>     nprocs 12
|731> end
|732> 
|733> %maxcore 8000
|734> 
|735> %scf
|736>     ConvForced true
|737> end
|738> 
|739> *xyz 0 1
|740> C  -0.206910188   1.217791974   0.111417350
|741> H  -1.210570872   1.458260815  -0.313390732
|742> H   0.516871501   1.662684349  -0.698050650
|743> H  -0.062037377   1.806807527   1.013613722
|744> C  -0.001660414  -0.149369155   0.017679393
|745> N   0.233215118  -1.270681891  -0.110848347
|746> *
|747> 
|748> 
|749> $new_job
|750> 
|751> # 48mecn.sphere.gfn2.md.500k.prod1.3mecn.cm.17.dset.1mecn-orca.engrad-mp2.def2tzvp-12600.to.12637
|752> ! MP2 def2-TZVP EnGrad TightSCF FrozenCore
|753> 
|754> %pal
|755>     nprocs 12
|756> end
|757> 
|758> %maxcore 8000
|759> 
|760> %scf
|761>     ConvForced true
|762> end
|763> 
|764> *xyz 0 1
|765> C  -0.735449062   0.982351561   0.288910168
|766> H  -1.013344157   1.127963506   1.332349905
|767> H  -1.613163209   0.812317781  -0.478603366
|768> H  -0.271716904   1.921135055   0.034061580
|769> C   0.117329052  -0.088035200  -0.053706309
|770> N   0.738540829  -1.044668171  -0.265554663
|771> *
|772> 
|773> 
|774> $new_job
|775> 
|776> # 48mecn.sphere.gfn2.md.500k.prod1.3mecn.cm.17.dset.1mecn-orca.engrad-mp2.def2tzvp-12600.to.12637
|777> ! MP2 def2-TZVP EnGrad TightSCF FrozenCore
|778> 
|779> %pal
|780>     nprocs 12
|781> end
|782> 
|783> %maxcore 8000
|784> 
|785> %scf
|786>     ConvForced true
|787> end
|788> 
|789> *xyz 0 1
|790> C   0.081042832   0.946227826   0.815923842
|791> H  -0.748307707   1.663574431   0.600235906
|792> H   1.018906821   1.563242888   0.700317983
|793> H  -0.240965562   0.564534775   1.824832572
|794> C   0.051200997  -0.148666044  -0.070838955
|795> N  -0.115522754  -0.956665922  -0.863750503
|796> *
|797> 
|798> 
|799> $new_job
|800> 
|801> # 48mecn.sphere.gfn2.md.500k.prod1.3mecn.cm.17.dset.1mecn-orca.engrad-mp2.def2tzvp-12600.to.12637
|802> ! MP2 def2-TZVP EnGrad TightSCF FrozenCore
|803> 
|804> %pal
|805>     nprocs 12
|806> end
|807> 
|808> %maxcore 8000
|809> 
|810> %scf
|811>     ConvForced true
|812> end
|813> 
|814> *xyz 0 1
|815> C  -0.469219816   1.148630510   0.454609825
|816> H   0.273455333   1.617625014   1.127804248
|817> H  -1.348056667   0.723237636   1.016543418
|818> H  -0.587245456   1.873097513  -0.383625282
|819> C   0.093279834  -0.117904220  -0.117071559
|820> N   0.441923065  -1.186998261  -0.416110745
|821> *
|822> 
|823> 
|824> $new_job
|825> 
|826> # 48mecn.sphere.gfn2.md.500k.prod1.3mecn.cm.17.dset.1mecn-orca.engrad-mp2.def2tzvp-12600.to.12637
|827> ! MP2 def2-TZVP EnGrad TightSCF FrozenCore
|828> 
|829> %pal
|830>     nprocs 12
|831> end
|832> 
|833> %maxcore 8000
|834> 
|835> %scf
|836>     ConvForced true
|837> end
|838> 
|839> *xyz 0 1
|840> C  -0.318731735  -0.796391192  -0.916974379
|841> H   0.109515085  -0.746322000  -1.949274811
|842> H  -1.398539083  -0.677693130  -0.854379434
|843> H  -0.169542603  -1.781505032  -0.662496271
|844> C   0.107917093   0.063629183   0.123795280
|845> N   0.285711726   0.858950501   0.929508007
|846> *
|847> 
|848> 
|849> $new_job
|850> 
|851> # 48mecn.sphere.gfn2.md.500k.prod1.3mecn.cm.17.dset.1mecn-orca.engrad-mp2.def2tzvp-12600.to.12637
|852> ! MP2 def2-TZVP EnGrad TightSCF FrozenCore
|853> 
|854> %pal
|855>     nprocs 12
|856> end
|857> 
|858> %maxcore 8000
|859> 
|860> %scf
|861>     ConvForced true
|862> end
|863> 
|864> *xyz 0 1
|865> C   0.852674085   0.939259316   0.303114511
|866> H   0.175003074   1.693688353   0.573880898
|867> H   1.273911804   1.210395406  -0.673110653
|868> H   1.460062074   0.849317115   1.265994197
|869> C  -0.130280102  -0.094493112  -0.060528882
|870> N  -0.828722673  -0.994409834  -0.291956498
|871> *
|872> 
|873> 
|874> $new_job
|875> 
|876> # 48mecn.sphere.gfn2.md.500k.prod1.3mecn.cm.17.dset.1mecn-orca.engrad-mp2.def2tzvp-12600.to.12637
|877> ! MP2 def2-TZVP EnGrad TightSCF FrozenCore
|878> 
|879> %pal
|880>     nprocs 12
|881> end
|882> 
|883> %maxcore 8000
|884> 
|885> %scf
|886>     ConvForced true
|887> end
|888> 
|889> *xyz 0 1
|890> C   0.821891701   0.876908916  -0.319708111
|891> H   1.268157439   1.283594447   0.544429355
|892> H   0.199199605   1.861036084  -0.499121952
|893> H   1.606942931   0.709188299  -1.039176702
|894> C  -0.075524265  -0.095223106   0.121210098
|895> N  -0.861174250  -0.947548138   0.241713483
|896> *
|897> 
|898> 
|899> $new_job
|900> 
|901> # 48mecn.sphere.gfn2.md.500k.prod1.3mecn.cm.17.dset.1mecn-orca.engrad-mp2.def2tzvp-12600.to.12637
|902> ! MP2 def2-TZVP EnGrad TightSCF FrozenCore
|903> 
|904> %pal
|905>     nprocs 12
|906> end
|907> 
|908> %maxcore 8000
|909> 
|910> %scf
|911>     ConvForced true
|912> end
|913> 
|914> *xyz 0 1
|915> C   0.563927660  -0.831090042  -0.813126087
|916> H  -0.136531026  -1.808829290  -0.849897707
|917> H   1.423653291  -1.072320307  -0.306652530
|918> H   0.746536895  -0.426881093  -1.818524963
|919> C  -0.127782415   0.052636734   0.116225802
|920> N  -0.520299104   0.905504008   0.811619624
|921> *
|922> 
|923> 
|924> $new_job
|925> 
|926> # 48mecn.sphere.gfn2.md.500k.prod1.3mecn.cm.17.dset.1mecn-orca.engrad-mp2.def2tzvp-12600.to.12637
|927> ! MP2 def2-TZVP EnGrad TightSCF FrozenCore
|928> 
|929> %pal
|930>     nprocs 12
|931> end
|932> 
|933> %maxcore 8000
|934> 
|935> %scf
|936>     ConvForced true
|937> end
|938> 
|939> *xyz 0 1
|940> C  -0.507622396  -0.975037929  -0.697745142
|941> H  -1.069807343  -0.273018935  -1.497203031
|942> H  -1.089670548  -1.558880239   0.029704655
|943> H   0.293660198  -1.704250439  -1.058169325
|944> C   0.067306793   0.145552851   0.062178754
|945> N   0.511797794   0.965674837   0.726692457
|946> *
|947> 
|948>                          ****END OF INPUT****
================================================================================


                 $$$$$$$$$$$$$$$$$$$$$$$$$$$$$$$$$$$$$$$$$$$$$$ 
                 $ THERE ARE 38 JOBS TO BE PROCESSED THIS RUN $
                 $$$$$$$$$$$$$$$$$$$$$$$$$$$$$$$$$$$$$$$$$$$$$$ 




                 $$$$$$$$$$$$$$$$  JOB NUMBER  1 $$$$$$$$$$$$$$


                     *******************************
                     * Energy+Gradient Calculation *
                     *******************************

---------------------------------
CARTESIAN COORDINATES (ANGSTROEM)
---------------------------------
  C      0.775159   -0.643568   -0.743476
  H      0.196494   -1.358560   -1.387014
  H      1.716508   -1.201810   -0.388188
  H      1.135993    0.205954   -1.377092
  C     -0.103711    0.030384    0.150276
  N     -0.795116    0.695179    0.735455

----------------------------
CARTESIAN COORDINATES (A.U.)
----------------------------
  NO LB      ZA    FRAG     MASS         X           Y           Z
   0 C     6.0000    0    12.011    1.464839   -1.216168   -1.404965
   1 H     1.0000    0     1.008    0.371321   -2.567306   -2.621077
   2 H     1.0000    0     1.008    3.243730   -2.271092   -0.733569
   3 H     1.0000    0     1.008    2.146715    0.389197   -2.602327
   4 C     6.0000    0    12.011   -0.195985    0.057417    0.283980
   5 N     7.0000    0    14.007   -1.502551    1.313697    1.389809

--------------------------------
INTERNAL COORDINATES (ANGSTROEM)
--------------------------------
 C      0   0   0     0.000000000000     0.00000000     0.00000000
 H      1   0   0     1.122590227260     0.00000000     0.00000000
 H      1   2   0     1.150652061750   106.84091157     0.00000000
 H      1   2   3     1.119535138991   108.96526572   114.36162971
 C      1   2   3     1.423171014477   110.07781082   224.56036958
 N      5   1   2     1.123578000102   170.85073450   262.58193423

---------------------------
INTERNAL COORDINATES (A.U.)
---------------------------
 C      0   0   0     0.000000000000     0.00000000     0.00000000
 H      1   0   0     2.121388090138     0.00000000     0.00000000
 H      1   2   0     2.174417272139   106.84091157     0.00000000
 H      1   2   3     2.115614809994   108.96526572   114.36162971
 C      1   2   3     2.689403459096   110.07781082   224.56036958
 N      5   1   2     2.123254710291   170.85073450   262.58193423

---------------------
BASIS SET INFORMATION
---------------------
There are 3 groups of distinct atoms

 Group   1 Type C   : 11s6p2d1f contracted to 5s3p2d1f pattern {62111/411/11/1}
 Group   2 Type H   : 5s1p contracted to 3s1p pattern {311/1}
 Group   3 Type N   : 11s6p2d1f contracted to 5s3p2d1f pattern {62111/411/11/1}

Atom   0C    basis set group =>   1
Atom   1H    basis set group =>   2
Atom   2H    basis set group =>   2
Atom   3H    basis set group =>   2
Atom   4C    basis set group =>   1
Atom   5N    basis set group =>   3


           ************************************************************
           *        Program running with 12 parallel MPI-processes    *
           *              working on a common directory               *
           ************************************************************
------------------------------------------------------------------------------
                           ORCA GTO INTEGRAL CALCULATION
------------------------------------------------------------------------------

                         BASIS SET STATISTICS AND STARTUP INFO

 # of primitive gaussian shells          ...   78
 # of primitive gaussian functions       ...  162
 # of contracted shells                  ...   45
 # of contracted basis functions         ...  111
 Highest angular momentum                ...    3
 Maximum contraction depth               ...    6
 Integral package used                   ... LIBINT
 Integral threshhold            Thresh   ...  2.500e-11
 Primitive cut-off              TCut     ...  2.500e-12


------------------------------ INTEGRAL EVALUATION ----------------------------


 * One electron integrals 
 Pre-screening matrix                    ... done
 Shell pair data                         ... done (   0.000 sec)



           ************************************************************
           *        Program running with 12 parallel MPI-processes    *
           *              working on a common directory               *
           ************************************************************
-------------------------------------------------------------------------------
                                 ORCA SCF
-------------------------------------------------------------------------------

------------
SCF SETTINGS
------------
Hamiltonian:
 Ab initio Hamiltonian  Method          .... Hartree-Fock(GTOs)


General Settings:
 Integral files         IntName         .... 48mecn.sphere.gfn2.md.500k.prod1.3mecn.cm.17.dset.1mecn-orca.engrad-mp2.def2tzvp-12600.to.12637
 Hartree-Fock type      HFTyp           .... RHF
 Total Charge           Charge          ....    0
 Multiplicity           Mult            ....    1
 Number of Electrons    NEL             ....   22
 Basis Dimension        Dim             ....  111
 Nuclear Repulsion      ENuc            ....     59.3167132242 Eh

Convergence Acceleration:
 DIIS                   CNVDIIS         .... on
   Start iteration      DIISMaxIt       ....    12
   Startup error        DIISStart       ....  0.200000
   # of expansion vecs  DIISMaxEq       ....     5
   Bias factor          DIISBfac        ....   1.050
   Max. coefficient     DIISMaxC        ....  10.000
 Newton-Raphson         CNVNR           .... off
 SOSCF                  CNVSOSCF        .... on
   Start iteration      SOSCFMaxIt      ....   150
   Startup grad/error   SOSCFStart      ....  0.003300
 Level Shifting         CNVShift        .... on
   Level shift para.    LevelShift      ....    0.2500
   Turn off err/grad.   ShiftErr        ....    0.0010
 Zerner damping         CNVZerner       .... off
 Static damping         CNVDamp         .... on
   Fraction old density DampFac         ....    0.7000
   Max. Damping (<1)    DampMax         ....    0.9800
   Min. Damping (>=0)   DampMin         ....    0.0000
   Turn off err/grad.   DampErr         ....    0.1000
 Fernandez-Rico         CNVRico         .... off

SCF Procedure:
 Maximum # iterations   MaxIter         ....   125
 SCF integral mode      SCFMode         .... Direct
   Integral package                     .... LIBINT
 Reset frequency        DirectResetFreq ....    20
 Integral Threshold     Thresh          ....  2.500e-11 Eh
 Primitive CutOff       TCut            ....  2.500e-12 Eh

Convergence Tolerance:
 Convergence Check Mode ConvCheckMode   .... Total+1el-Energy
 Convergence forced     ConvForced      .... 1
 Energy Change          TolE            ....  1.000e-08 Eh
 1-El. energy change                    ....  1.000e-05 Eh
 Orbital Gradient       TolG            ....  1.000e-05
 Orbital Rotation angle TolX            ....  1.000e-05
 DIIS Error             TolErr          ....  5.000e-07


Diagonalization of the overlap matrix:
Smallest eigenvalue                        ... 1.441e-04
Time for diagonalization                   ...    0.003 sec
Threshold for overlap eigenvalues          ... 1.000e-08
Number of eigenvalues below threshold      ... 0
Time for construction of square roots      ...    0.001 sec
Total time needed                          ...    0.004 sec

-------------------
DFT GRID GENERATION
-------------------

General Integration Accuracy     IntAcc      ...  4.340
Radial Grid Type                 RadialGrid  ... Gauss-Chebyshev
Angular Grid (max. acc.)         AngularGrid ... Lebedev-110
Angular grid pruning method      GridPruning ... 3 (G Style)
Weight generation scheme         WeightScheme... Becke
Basis function cutoff            BFCut       ...    1.0000e-11
Integration weight cutoff        WCut        ...    1.0000e-14
Grids for H and He will be reduced by one unit

# of grid points (after initial pruning)     ...   7396 (   0.0 sec)
# of grid points (after weights+screening)   ...   7193 (   0.0 sec)
nearest neighbour list constructed           ...    0.0 sec
Grid point re-assignment to atoms done       ...    0.0 sec
Grid point division into batches done        ...    0.0 sec
Reduced shell lists constructed in    0.0 sec

Total number of grid points                  ...     7193
Total number of batches                      ...      115
Average number of points per batch           ...       62
Average number of grid points per atom       ...     1199
Average number of shells per batch           ...    37.82 (84.04%)
Average number of basis functions per batch  ...    96.55 (86.98%)
Average number of large shells per batch     ...    35.73 (94.47%)
Average number of large basis fcns per batch ...    89.00 (92.18%)
Maximum spatial batch extension              ...   1.91,  1.87,  2.31 au
Average spatial batch extension              ...   0.14,  0.13,  0.13 au

Time for grid setup =    0.014 sec

------------------------------
INITIAL GUESS: MODEL POTENTIAL
------------------------------
Loading Hartree-Fock densities                     ... done
Calculating cut-offs                               ... done
Setting up the integral package                    ... done
Initializing the effective Hamiltonian             ... done
Starting the Coulomb interaction                   ... done (   0.0 sec)
Reading the grid                                   ... done
Mapping shells                                     ... done
Starting the XC term evaluation                    ... done (   0.0 sec)
Transforming the Hamiltonian                       ... done (   0.0 sec)
Diagonalizing the Hamiltonian                      ... done (   0.0 sec)
Back transforming the eigenvectors                 ... done (   0.0 sec)
Now organizing SCF variables                       ... done
                      ------------------
                      INITIAL GUESS DONE (   0.1 sec)
                      ------------------
--------------
SCF ITERATIONS
--------------
ITER       Energy         Delta-E        Max-DP      RMS-DP      [F,P]     Damp
               ***  Starting incremental Fock matrix formation  ***
  0   -131.7895492660   0.000000000000 0.03751379  0.00155140  0.2599901 0.7000
  1   -131.8527817533  -0.063232487297 0.02628889  0.00123868  0.1860298 0.7000
                               ***Turning on DIIS***
  2   -131.8900581210  -0.037276367621 0.01536709  0.00080799  0.1412150 0.7000
  3   -132.2350706195  -0.345012498495 0.00870840  0.00050446  0.1052848 0.7000
  4   -132.2110783322   0.023992287216 0.02192659  0.00121610  0.0743072 0.0000
  5   -131.9764513861   0.234626946137 0.00611642  0.00022638  0.0041116 0.0000
                      *** Initiating the SOSCF procedure ***
                           *** Shutting down DIIS ***
                      *** Re-Reading the Fockian *** 
                      *** Removing any level shift *** 
ITER      Energy       Delta-E        Grad      Rot      Max-DP    RMS-DP
  6   -131.96993517   0.0065162173  0.001417  0.001417  0.004245  0.000139
               *** Restarting incremental Fock matrix formation ***
  7   -131.96641292   0.0035222488  0.000512  0.000730  0.002635  0.000095
  8   -131.96641931  -0.0000063898  0.000274  0.000568  0.002313  0.000077
  9   -131.96642090  -0.0000015902  0.000123  0.000154  0.000605  0.000020
 10   -131.96642108  -0.0000001805  0.000025  0.000050  0.000124  0.000004
 11   -131.96642110  -0.0000000243  0.000016  0.000059  0.000035  0.000002
 12   -131.96642112  -0.0000000111  0.000006  0.000007  0.000028  0.000001
                  ***Gradient check signals convergence***
              ***Rediagonalizing the Fockian in SOSCF/NRSCF***

               *****************************************************
               *                     SUCCESS                       *
               *           SCF CONVERGED AFTER  13 CYCLES          *
               *****************************************************


----------------
TOTAL SCF ENERGY
----------------

Total Energy       :         -131.96642112 Eh           -3590.98888 eV

Components:
Nuclear Repulsion  :           59.31671322 Eh            1614.08983 eV
Electronic Energy  :         -191.28313434 Eh           -5205.07871 eV
One Electron Energy:         -294.91694275 Eh           -8025.09800 eV
Two Electron Energy:          103.63380841 Eh            2820.01929 eV

Virial components:
Potential Energy   :         -263.80770137 Eh           -7178.57251 eV
Kinetic Energy     :          131.84128025 Eh            3587.58362 eV
Virial Ratio       :            2.00094918


---------------
SCF CONVERGENCE
---------------

  Last Energy change         ...   -6.0632e-10  Tolerance :   1.0000e-08
  Last MAX-Density change    ...    9.9186e-06  Tolerance :   1.0000e-07
  Last RMS-Density change    ...    3.4412e-07  Tolerance :   5.0000e-09
  Last Orbital Gradient      ...    9.8915e-07  Tolerance :   1.0000e-05
  Last Orbital Rotation      ...    1.8612e-06  Tolerance :   1.0000e-05

             **** THE GBW FILE WAS UPDATED (48mecn.sphere.gfn2.md.500k.prod1.3mecn.cm.17.dset.1mecn-orca.engrad-mp2.def2tzvp-12600.to.12637.gbw) ****
             **** DENSITY FILE WAS UPDATED (48mecn.sphere.gfn2.md.500k.prod1.3mecn.cm.17.dset.1mecn-orca.engrad-mp2.def2tzvp-12600.to.12637.scfp) ****
             **** ENERGY FILE WAS UPDATED (48mecn.sphere.gfn2.md.500k.prod1.3mecn.cm.17.dset.1mecn-orca.engrad-mp2.def2tzvp-12600.to.12637.en.tmp) ****
             **** THE GBW FILE WAS UPDATED (48mecn.sphere.gfn2.md.500k.prod1.3mecn.cm.17.dset.1mecn-orca.engrad-mp2.def2tzvp-12600.to.12637.gbw) ****
             **** DENSITY FILE WAS UPDATED (48mecn.sphere.gfn2.md.500k.prod1.3mecn.cm.17.dset.1mecn-orca.engrad-mp2.def2tzvp-12600.to.12637.scfp) ****
----------------
ORBITAL ENERGIES
----------------

  NO   OCC          E(Eh)            E(eV) 
   0   2.0000     -15.559911      -423.4067 
   1   2.0000     -11.292550      -307.2859 
   2   2.0000     -11.266851      -306.5866 
   3   2.0000      -1.236976       -33.6598 
   4   2.0000      -1.038264       -28.2526 
   5   2.0000      -0.701277       -19.0827 
   6   2.0000      -0.627413       -17.0728 
   7   2.0000      -0.611031       -16.6270 
   8   2.0000      -0.556771       -15.1505 
   9   2.0000      -0.468330       -12.7439 
  10   2.0000      -0.465301       -12.6615 
  11   0.0000       0.118682         3.2295 
  12   0.0000       0.162874         4.4320 
  13   0.0000       0.174026         4.7355 
  14   0.0000       0.205915         5.6032 
  15   0.0000       0.232943         6.3387 
  16   0.0000       0.237533         6.4636 
  17   0.0000       0.267759         7.2861 
  18   0.0000       0.307194         8.3592 
  19   0.0000       0.348069         9.4714 
  20   0.0000       0.377111        10.2617 
  21   0.0000       0.382841        10.4176 
  22   0.0000       0.412135        11.2148 
  23   0.0000       0.492486        13.4012 
  24   0.0000       0.536679        14.6038 
  25   0.0000       0.572326        15.5738 
  26   0.0000       0.588925        16.0255 
  27   0.0000       0.593289        16.1442 
  28   0.0000       0.658667        17.9232 
  29   0.0000       0.673941        18.3389 
  30   0.0000       0.686634        18.6843 
  31   0.0000       0.797204        21.6930 
  32   0.0000       0.816888        22.2286 
  33   0.0000       0.826958        22.5027 
  34   0.0000       0.916203        24.9311 
  35   0.0000       0.949356        25.8333 
  36   0.0000       1.056188        28.7403 
  37   0.0000       1.125396        30.6236 
  38   0.0000       1.150647        31.3107 
  39   0.0000       1.350468        36.7481 
  40   0.0000       1.393159        37.9098 
  41   0.0000       1.417751        38.5790 
  42   0.0000       1.468669        39.9645 
  43   0.0000       1.495504        40.6947 
  44   0.0000       1.516491        41.2658 
  45   0.0000       1.547203        42.1015 
  46   0.0000       1.666430        45.3459 
  47   0.0000       1.671693        45.4891 
  48   0.0000       1.735276        47.2193 
  49   0.0000       1.755552        47.7710 
  50   0.0000       1.785205        48.5779 
  51   0.0000       1.812133        49.3107 
  52   0.0000       1.935200        52.6595 
  53   0.0000       1.950168        53.0668 
  54   0.0000       2.006627        54.6031 
  55   0.0000       2.150511        58.5184 
  56   0.0000       2.253395        61.3180 
  57   0.0000       2.302292        62.6485 
  58   0.0000       2.329541        63.3900 
  59   0.0000       2.482176        67.5435 
  60   0.0000       2.536012        69.0084 
  61   0.0000       2.564570        69.7855 
  62   0.0000       2.594920        70.6114 
  63   0.0000       2.613381        71.1137 
  64   0.0000       2.701777        73.5191 
  65   0.0000       2.737399        74.4884 
  66   0.0000       2.797596        76.1265 
  67   0.0000       2.868486        78.0555 
  68   0.0000       2.909373        79.1681 
  69   0.0000       2.914213        79.2998 
  70   0.0000       2.939744        79.9945 
  71   0.0000       3.023666        82.2781 
  72   0.0000       3.072058        83.5950 
  73   0.0000       3.159467        85.9735 
  74   0.0000       3.179347        86.5144 
  75   0.0000       3.216578        87.5275 
  76   0.0000       3.249157        88.4141 
  77   0.0000       3.301263        89.8319 
  78   0.0000       3.363984        91.5387 
  79   0.0000       3.447238        93.8041 
  80   0.0000       3.478095        94.6438 
  81   0.0000       3.537160        96.2510 
  82   0.0000       3.617671        98.4418 
  83   0.0000       3.626241        98.6750 
  84   0.0000       3.760500       102.3284 
  85   0.0000       3.830109       104.2226 
  86   0.0000       3.901825       106.1741 
  87   0.0000       3.952591       107.5555 
  88   0.0000       4.011578       109.1606 
  89   0.0000       4.251972       115.7020 
  90   0.0000       4.337804       118.0376 
  91   0.0000       4.356557       118.5479 
  92   0.0000       4.366955       118.8309 
  93   0.0000       4.513389       122.8156 
  94   0.0000       4.692507       127.6896 
  95   0.0000       4.743033       129.0645 
  96   0.0000       4.804302       130.7317 
  97   0.0000       5.002240       136.1179 
  98   0.0000       5.015358       136.4748 
  99   0.0000       5.128678       139.5584 
 100   0.0000       5.146863       140.0533 
 101   0.0000       5.233339       142.4064 
 102   0.0000       5.602023       152.4388 
 103   0.0000       5.623897       153.0340 
 104   0.0000       6.055268       164.7722 
 105   0.0000       6.147258       167.2754 
 106   0.0000       6.195379       168.5848 
 107   0.0000       6.665615       181.3806 
 108   0.0000      23.377069       636.1224 
 109   0.0000      24.359662       662.8601 
 110   0.0000      33.433777       909.7793 

                    ********************************
                    * MULLIKEN POPULATION ANALYSIS *
                    ********************************

-----------------------
MULLIKEN ATOMIC CHARGES
-----------------------
   0 C :   -0.220294
   1 H :    0.158886
   2 H :    0.169296
   3 H :    0.161446
   4 C :   -0.136943
   5 N :   -0.132390
Sum of atomic charges:    0.0000000

--------------------------------
MULLIKEN REDUCED ORBITAL CHARGES
--------------------------------
  0 C s       :     3.167118  s :     3.167118
      pz      :     0.971719  p :     2.985003
      px      :     0.989728
      py      :     1.023556
      dz2     :     0.006306  d :     0.064589
      dxz     :     0.015018
      dyz     :     0.018526
      dx2y2   :     0.008457
      dxy     :     0.016282
      f0      :     0.000316  f :     0.003585
      f+1     :     0.000378
      f-1     :     0.000195
      f+2     :     0.000460
      f-2     :     0.001660
      f+3     :     0.000097
      f-3     :     0.000479
  1 H s       :     0.819613  s :     0.819613
      pz      :     0.007406  p :     0.021501
      px      :     0.005967
      py      :     0.008128
  2 H s       :     0.810393  s :     0.810393
      pz      :     0.003416  p :     0.020311
      px      :     0.011003
      py      :     0.005892
  3 H s       :     0.816784  s :     0.816784
      pz      :     0.007254  p :     0.021770
      px      :     0.004696
      py      :     0.009821
  4 C s       :     3.230960  s :     3.230960
      pz      :     0.942418  p :     2.768668
      px      :     0.932106
      py      :     0.894143
      dz2     :     0.024499  d :     0.118880
      dxz     :     0.019827
      dyz     :     0.020590
      dx2y2   :     0.030347
      dxy     :     0.023617
      f0      :     0.001027  f :     0.018435
      f+1     :     0.003560
      f-1     :     0.002837
      f+2     :     0.003918
      f-2     :     0.002210
      f+3     :     0.002531
      f-3     :     0.002352
  5 N s       :     3.671924  s :     3.671924
      pz      :     1.119916  p :     3.402145
      px      :     1.144748
      py      :     1.137481
      dz2     :     0.013648  d :     0.055213
      dxz     :     0.008504
      dyz     :     0.008320
      dx2y2   :     0.016386
      dxy     :     0.008355
      f0      :     0.000154  f :     0.003108
      f+1     :     0.000547
      f-1     :     0.000513
      f+2     :     0.000620
      f-2     :     0.000351
      f+3     :     0.000478
      f-3     :     0.000446


                     *******************************
                     * LOEWDIN POPULATION ANALYSIS *
                     *******************************

----------------------
LOEWDIN ATOMIC CHARGES
----------------------
   0 C :   -0.260261
   1 H :    0.149719
   2 H :    0.150132
   3 H :    0.159852
   4 C :   -0.237610
   5 N :    0.038168

-------------------------------
LOEWDIN REDUCED ORBITAL CHARGES
-------------------------------
  0 C s       :     2.826143  s :     2.826143
      pz      :     1.048471  p :     3.142526
      px      :     1.047560
      py      :     1.046495
      dz2     :     0.034716  d :     0.266175
      dxz     :     0.057564
      dyz     :     0.070540
      dx2y2   :     0.034032
      dxy     :     0.069323
      f0      :     0.004339  f :     0.025417
      f+1     :     0.003108
      f-1     :     0.002351
      f+2     :     0.003932
      f-2     :     0.004750
      f+3     :     0.003563
      f-3     :     0.003374
  1 H s       :     0.793528  s :     0.793528
      pz      :     0.018644  p :     0.056753
      px      :     0.017567
      py      :     0.020542
  2 H s       :     0.796018  s :     0.796018
      pz      :     0.010922  p :     0.053851
      px      :     0.027286
      py      :     0.015643
  3 H s       :     0.782757  s :     0.782757
      pz      :     0.018262  p :     0.057391
      px      :     0.012796
      py      :     0.026333
  4 C s       :     2.822077  s :     2.822077
      pz      :     0.951340  p :     2.877094
      px      :     0.979934
      py      :     0.945819
      dz2     :     0.097175  d :     0.473392
      dxz     :     0.095826
      dyz     :     0.087546
      dx2y2   :     0.100042
      dxy     :     0.092803
      f0      :     0.005562  f :     0.065047
      f+1     :     0.009823
      f-1     :     0.008167
      f+2     :     0.010590
      f-2     :     0.013939
      f+3     :     0.008405
      f-3     :     0.008562
  5 N s       :     3.283235  s :     3.283235
      pz      :     1.148116  p :     3.542772
      px      :     1.203307
      py      :     1.191349
      dz2     :     0.022033  d :     0.118102
      dxz     :     0.022463
      dyz     :     0.021980
      dx2y2   :     0.025800
      dxy     :     0.025825
      f0      :     0.001623  f :     0.017723
      f+1     :     0.002232
      f-1     :     0.002101
      f+2     :     0.002393
      f-2     :     0.004335
      f+3     :     0.002502
      f-3     :     0.002536


                      *****************************
                      * MAYER POPULATION ANALYSIS *
                      *****************************

  NA   - Mulliken gross atomic population
  ZA   - Total nuclear charge
  QA   - Mulliken gross atomic charge
  VA   - Mayer's total valence
  BVA  - Mayer's bonded valence
  FA   - Mayer's free valence

  ATOM       NA         ZA         QA         VA         BVA        FA
  0 C      6.2203     6.0000    -0.2203     3.8187     3.8187    -0.0000
  1 H      0.8411     1.0000     0.1589     0.9578     0.9578     0.0000
  2 H      0.8307     1.0000     0.1693     0.9567     0.9567    -0.0000
  3 H      0.8386     1.0000     0.1614     0.9562     0.9562    -0.0000
  4 C      6.1369     6.0000    -0.1369     3.9515     3.9515     0.0000
  5 N      7.1324     7.0000    -0.1324     3.0503     3.0503     0.0000

  Mayer bond orders larger than 0.100000
B(  0-C ,  1-H ) :   0.9588 B(  0-C ,  2-H ) :   0.9558 B(  0-C ,  3-H ) :   0.9615 
B(  0-C ,  4-C ) :   0.9515 B(  4-C ,  5-N ) :   3.0197 

-------
TIMINGS
-------

Total SCF time: 0 days 0 hours 0 min 2 sec 

Total time                  ....       2.163 sec
Sum of individual times     ....       1.995 sec  ( 92.2%)

Fock matrix formation       ....       1.866 sec  ( 86.3%)
Diagonalization             ....       0.011 sec  (  0.5%)
Density matrix formation    ....       0.004 sec  (  0.2%)
Population analysis         ....       0.002 sec  (  0.1%)
Initial guess               ....       0.087 sec  (  4.0%)
Orbital Transformation      ....       0.000 sec  (  0.0%)
Orbital Orthonormalization  ....       0.000 sec  (  0.0%)
DIIS solution               ....       0.004 sec  (  0.2%)
SOSCF solution              ....       0.005 sec  (  0.3%)


           ************************************************************
           *        Program running with 12 parallel MPI-processes    *
           *              working on a common directory               *
           ************************************************************

------------------------------------------------------------------------------
                                ORCA  MP2 
------------------------------------------------------------------------------

Freezing NCore=6 chemical core electrons
MP2 will be done in the AO integral direct mode
The Q1-step will be done using symmetric double matrices
Dimension of the basis                    ...  111
Memory devoted for MP2                    ... 8000 MB   
Memory needed for all in one shot         ...    6 MB
Number of MOs that can be treated together... 1518      
MP2 density construction                  ... relaxed
The MP2 gradient is requested => amplitudes will be stored on disk
Total number of MOs              ...    8
Number of MOs treated per batch  ...    1 
Number of batches necessary      ...    1 
OPERATORS   0/  0 PASS   0
-----------------------------------------------
 MP2 CORRELATION ENERGY   :     -0.502504504 Eh
-----------------------------------------------


---------------------
MP2 DENSITY FORMATION
---------------------

[...]
      f+2     :     0.000864
      f-2     :     0.002298
      f+3     :     0.001036
      f-3     :     0.000803
  1 H s       :     0.807396  s :     0.807396
      pz      :     0.008243  p :     0.021765
      px      :     0.005780
      py      :     0.007742
  2 H s       :     0.812862  s :     0.812862
      pz      :     0.009835  p :     0.025528
      px      :     0.007554
      py      :     0.008139
  3 H s       :     0.810270  s :     0.810270
      pz      :     0.004946  p :     0.023723
      px      :     0.009649
      py      :     0.009128
  4 C s       :     3.240448  s :     3.240448
      pz      :     0.889779  p :     2.730545
      px      :     0.897093
      py      :     0.943673
      dz2     :     0.030443  d :     0.131410
      dxz     :     0.021948
      dyz     :     0.025741
      dx2y2   :     0.027669
      dxy     :     0.025609
      f0      :     0.001755  f :     0.020335
      f+1     :     0.001890
      f-1     :     0.004500
      f+2     :     0.003614
      f-2     :     0.002976
      f+3     :     0.002367
      f-3     :     0.003233
  5 N s       :     3.680603  s :     3.680603
      pz      :     1.123409  p :     3.393619
      px      :     1.082077
      py      :     1.188133
      dz2     :     0.019274  d :     0.077399
      dxz     :     0.012583
      dyz     :     0.013521
      dx2y2   :     0.017185
      dxy     :     0.014836
      f0      :     0.000633  f :     0.005791
      f+1     :     0.000624
      f-1     :     0.001177
      f+2     :     0.000961
      f-2     :     0.000815
      f+3     :     0.000679
      f-3     :     0.000902


                     *******************************
                     * LOEWDIN POPULATION ANALYSIS *
                     *******************************

----------------------
LOEWDIN ATOMIC CHARGES
----------------------
   0 C :   -0.268127
   1 H :    0.182946
   2 H :    0.146810
   3 H :    0.152547
   4 C :   -0.235759
   5 N :    0.021583

-------------------------------
LOEWDIN REDUCED ORBITAL CHARGES
-------------------------------
  0 C s       :     2.851857  s :     2.851857
      pz      :     1.043068  p :     3.109341
      px      :     1.053878
      py      :     1.012396
      dz2     :     0.030830  d :     0.277139
      dxz     :     0.052372
      dyz     :     0.081922
      dx2y2   :     0.031812
      dxy     :     0.080204
      f0      :     0.003776  f :     0.029790
      f+1     :     0.002258
      f-1     :     0.005714
      f+2     :     0.003751
      f-2     :     0.005450
      f+3     :     0.004420
      f-3     :     0.004421
  1 H s       :     0.764918  s :     0.764918
      pz      :     0.019182  p :     0.052136
      px      :     0.013691
      py      :     0.019263
  2 H s       :     0.786881  s :     0.786881
      pz      :     0.026626  p :     0.066309
      px      :     0.020328
      py      :     0.019356
  3 H s       :     0.787611  s :     0.787611
      pz      :     0.012839  p :     0.059842
      px      :     0.025846
      py      :     0.021156
  4 C s       :     2.838508  s :     2.838508
      pz      :     0.941164  p :     2.854504
      px      :     0.887086
      py      :     1.026254
      dz2     :     0.094657  d :     0.475187
      dxz     :     0.074978
      dyz     :     0.111981
      dx2y2   :     0.094252
      dxy     :     0.099319
      f0      :     0.006295  f :     0.067560
      f+1     :     0.005076
      f-1     :     0.013848
      f+2     :     0.012107
      f-2     :     0.013097
      f+3     :     0.008350
      f-3     :     0.008788
  5 N s       :     3.292922  s :     3.292922
      pz      :     1.169374  p :     3.520401
      px      :     1.078615
      py      :     1.272412
      dz2     :     0.028924  d :     0.144710
      dxz     :     0.022574
      dyz     :     0.035794
      dx2y2   :     0.028584
      dxy     :     0.028835
      f0      :     0.002105  f :     0.020384
      f+1     :     0.001545
      f-1     :     0.004017
      f+2     :     0.003598
      f-2     :     0.004197
      f+3     :     0.002461
      f-3     :     0.002460


                      *****************************
                      * MAYER POPULATION ANALYSIS *
                      *****************************

  NA   - Mulliken gross atomic population
  ZA   - Total nuclear charge
  QA   - Mulliken gross atomic charge
  VA   - Mayer's total valence
  BVA  - Mayer's bonded valence
  FA   - Mayer's free valence

  ATOM       NA         ZA         QA         VA         BVA        FA
  0 C      6.2183     6.0000    -0.2183     3.9110     3.6137     0.2973
  1 H      0.8292     1.0000     0.1708     0.9629     0.9093     0.0536
  2 H      0.8384     1.0000     0.1616     0.9685     0.9204     0.0481
  3 H      0.8340     1.0000     0.1660     0.9678     0.9181     0.0497
  4 C      6.1227     6.0000    -0.1227     4.0161     3.5868     0.4294
  5 N      7.1574     7.0000    -0.1574     3.2351     2.7652     0.4698

  Mayer bond orders larger than 0.100000
B(  0-C ,  1-H ) :   0.9079 B(  0-C ,  2-H ) :   0.9263 B(  0-C ,  3-H ) :   0.9222 
B(  0-C ,  4-C ) :   0.8682 B(  4-C ,  5-N ) :   2.7475 


                *******************************************
                * RELAXED MP2 DENSITY POPULATION ANALYSIS *
                *******************************************

------------------------------------------------------------------------------
                           ORCA POPULATION ANALYSIS
------------------------------------------------------------------------------
Input electron density              ... 48mecn.sphere.gfn2.md.500k.prod1.3mecn.cm.17.dset.1mecn-orca.engrad-mp2.def2tzvp-12600.to.12637_job38.pmp2re
BaseName (.gbw .S,...)              ... 48mecn.sphere.gfn2.md.500k.prod1.3mecn.cm.17.dset.1mecn-orca.engrad-mp2.def2tzvp-12600.to.12637_job38

                    ********************************
                    * MULLIKEN POPULATION ANALYSIS *
                    ********************************

-----------------------
MULLIKEN ATOMIC CHARGES
-----------------------
   0 C :   -0.298475
   1 H :    0.180695
   2 H :    0.173632
   3 H :    0.176796
   4 C :   -0.167687
   5 N :   -0.064961
Sum of atomic charges:   -0.0000000

--------------------------------
MULLIKEN REDUCED ORBITAL CHARGES
--------------------------------
  0 C s       :     3.231521  s :     3.231521
      pz      :     1.017325  p :     2.982727
      px      :     1.050156
      py      :     0.915246
      dz2     :     0.011861  d :     0.077080
      dxz     :     0.014948
      dyz     :     0.019610
      dx2y2   :     0.010848
      dxy     :     0.019812
      f0      :     0.000723  f :     0.007146
      f+1     :     0.000804
      f-1     :     0.000884
      f+2     :     0.000847
      f-2     :     0.002104
      f+3     :     0.000976
      f-3     :     0.000807
  1 H s       :     0.798469  s :     0.798469
      pz      :     0.007876  p :     0.020836
      px      :     0.005727
      py      :     0.007234
  2 H s       :     0.802044  s :     0.802044
      pz      :     0.009177  p :     0.024324
      px      :     0.007366
      py      :     0.007782
  3 H s       :     0.800667  s :     0.800667
      pz      :     0.005037  p :     0.022537
      px      :     0.009019
      py      :     0.008480
  4 C s       :     3.226179  s :     3.226179
      pz      :     0.929102  p :     2.815024
      px      :     0.921023
      py      :     0.964898
      dz2     :     0.023732  d :     0.107530
      dxz     :     0.018463
      dyz     :     0.022189
      dx2y2   :     0.021786
      dxy     :     0.021361
      f0      :     0.001664  f :     0.018954
      f+1     :     0.001762
      f-1     :     0.004132
      f+2     :     0.003361
      f-2     :     0.002810
      f+3     :     0.002233
      f-3     :     0.002992
  5 N s       :     3.618264  s :     3.618264
      pz      :     1.116664  p :     3.372671
      px      :     1.080532
      py      :     1.175475
      dz2     :     0.016649  d :     0.068699
      dxz     :     0.011292
      dyz     :     0.012424
      dx2y2   :     0.015085
      dxy     :     0.013248
      f0      :     0.000598  f :     0.005327
      f+1     :     0.000589
      f-1     :     0.001061
      f+2     :     0.000874
      f-2     :     0.000741
      f+3     :     0.000635
      f-3     :     0.000829


                     *******************************
                     * LOEWDIN POPULATION ANALYSIS *
                     *******************************

----------------------
LOEWDIN ATOMIC CHARGES
----------------------
   0 C :   -0.298590
   1 H :    0.191381
   2 H :    0.153062
   3 H :    0.159254
   4 C :   -0.251185
   5 N :    0.046078

-------------------------------
LOEWDIN REDUCED ORBITAL CHARGES
-------------------------------
  0 C s       :     2.856869  s :     2.856869
      pz      :     1.056175  p :     3.147239
      px      :     1.067138
      py      :     1.023927
      dz2     :     0.031441  d :     0.264595
      dxz     :     0.049413
      dyz     :     0.075883
      dx2y2   :     0.032359
      dxy     :     0.075498
      f0      :     0.003685  f :     0.029886
      f+1     :     0.002300
      f-1     :     0.005948
      f+2     :     0.003780
      f-2     :     0.005241
      f+3     :     0.004342
      f-3     :     0.004590
  1 H s       :     0.756656  s :     0.756656
      pz      :     0.019144  p :     0.051963
      px      :     0.013909
      py      :     0.018910
  2 H s       :     0.780553  s :     0.780553
      pz      :     0.026406  p :     0.066385
      px      :     0.020575
      py      :     0.019405
  3 H s       :     0.780996  s :     0.780996
      pz      :     0.013274  p :     0.059749
      px      :     0.025603
      py      :     0.020873
  4 C s       :     2.843830  s :     2.843830
      pz      :     0.953630  p :     2.880260
      px      :     0.898338
      py      :     1.028292
      dz2     :     0.088649  d :     0.459586
      dxz     :     0.072151
      dyz     :     0.111828
      dx2y2   :     0.090096
      dxy     :     0.096862
      f0      :     0.006444  f :     0.067509
      f+1     :     0.004906
      f-1     :     0.013599
      f+2     :     0.012143
      f-2     :     0.013332
      f+3     :     0.008429
      f-3     :     0.008655
  5 N s       :     3.292728  s :     3.292728
      pz      :     1.161744  p :     3.499642
      px      :     1.076324
      py      :     1.261574
      dz2     :     0.027439  d :     0.140753
      dxz     :     0.021969
      dyz     :     0.035706
      dx2y2   :     0.027575
      dxy     :     0.028064
      f0      :     0.002144  f :     0.020800
      f+1     :     0.001587
      f-1     :     0.004113
      f+2     :     0.003678
      f-2     :     0.004251
      f+3     :     0.002507
      f-3     :     0.002520


                      *****************************
                      * MAYER POPULATION ANALYSIS *
                      *****************************

  NA   - Mulliken gross atomic population
  ZA   - Total nuclear charge
  QA   - Mulliken gross atomic charge
  VA   - Mayer's total valence
  BVA  - Mayer's bonded valence
  FA   - Mayer's free valence

  ATOM       NA         ZA         QA         VA         BVA        FA
  0 C      6.2985     6.0000    -0.2985     3.9165     3.6212     0.2953
  1 H      0.8193     1.0000     0.1807     0.9600     0.9068     0.0532
  2 H      0.8264     1.0000     0.1736     0.9633     0.9157     0.0476
  3 H      0.8232     1.0000     0.1768     0.9626     0.9134     0.0492
  4 C      6.1677     6.0000    -0.1677     4.1489     3.7294     0.4195
  5 N      7.0650     7.0000    -0.0650     3.3503     2.8921     0.4582

  Mayer bond orders larger than 0.100000
B(  0-C ,  1-H ) :   0.8970 B(  0-C ,  2-H ) :   0.9183 B(  0-C ,  3-H ) :   0.9132 
B(  0-C ,  4-C ) :   0.8953 B(  4-C ,  5-N ) :   2.8578 


----------------------------------
MP2 DERIVATIVE INTEGRAL GENERATION
----------------------------------


Input Wavefunction Amplitudes       ... 48mecn.sphere.gfn2.md.500k.prod1.3mecn.cm.17.dset.1mecn-orca.engrad-mp2.def2tzvp-12600.to.12637_job38.mp2tsaa.tmp
Input Correlated Electron Density   ... 48mecn.sphere.gfn2.md.500k.prod1.3mecn.cm.17.dset.1mecn-orca.engrad-mp2.def2tzvp-12600.to.12637_job38.pmp2re
Input Energy Weighted Density       ... 48mecn.sphere.gfn2.md.500k.prod1.3mecn.cm.17.dset.1mecn-orca.engrad-mp2.def2tzvp-12600.to.12637_job38.wmp2.tmp
Input SCF Electron Density          ... 48mecn.sphere.gfn2.md.500k.prod1.3mecn.cm.17.dset.1mecn-orca.engrad-mp2.def2tzvp-12600.to.12637_job38.scfp

One-Electron Terms    ...
                        ... One-Electron Terms done
Prescreening matrices              ... done

Batch handling in the gradient evaluation:
Memory available                      ... 8000.0 MB
Memory per occupied orbital in Q2     ...    0.8 MB
Memory per occupied orbital in Q3     ...    0.0 MB
Total memory requirement per |i>      ...    0.8 MB
Max. Number of orbitals possible      ...  10081
Number of orbitals treated per batch  ...      8
Number of batches to be done          ...      1
Batch   0: i=    3 ...    10

---------------------------------------
MP2 TOTAL ENERGY:     -132.461776009 Eh
---------------------------------------

The final MP2 gradient
  0:  -0.00479835  -0.03088319   0.01831172
  1:  -0.01435422   0.05550885  -0.02427537
  2:   0.01121877  -0.00752115   0.01327635
  3:   0.02063521  -0.02825226   0.00176491
  4:   0.00638459   0.05277499   0.01848305
  5:  -0.01908599  -0.04162724  -0.02756066

-----------------------------------
NORM OF THE MP2 GRADIENT:  0.113132
-----------------------------------

-------------------------   --------------------
FINAL SINGLE POINT ENERGY      -132.461776008697
-------------------------   --------------------


                            ***************************************
                            *     ORCA property calculations      *
                            ***************************************

                                    ---------------------
                                    Active property flags
                                    ---------------------
   (+) Dipole Moment


------------------------------------------------------------------------------
                       ORCA ELECTRIC PROPERTIES CALCULATION
------------------------------------------------------------------------------

Dipole Moment Calculation                       ... on
Quadrupole Moment Calculation                   ... off
Polarizability Calculation                      ... off
GBWName                                         ... 48mecn.sphere.gfn2.md.500k.prod1.3mecn.cm.17.dset.1mecn-orca.engrad-mp2.def2tzvp-12600.to.12637_job38.gbw
Electron density file                           ... 48mecn.sphere.gfn2.md.500k.prod1.3mecn.cm.17.dset.1mecn-orca.engrad-mp2.def2tzvp-12600.to.12637_job38.scfp
The origin for moment calculation is the CENTER OF MASS  = (-0.000029, -0.000054 -0.000040)

-------------
DIPOLE MOMENT
-------------
                                X             Y             Z
Electronic contribution:      1.12839       2.08699       1.49568
Nuclear contribution   :     -1.74761      -3.31213      -2.36546
                        -----------------------------------------
Total Dipole Moment    :     -0.61921      -1.22514      -0.86978
                        -----------------------------------------
Magnitude (a.u.)       :      1.62509
Magnitude (Debye)      :      4.13065



--------------------
Rotational spectrum 
--------------------
 
Rotational constants in cm-1:     4.505833     0.312490     0.308979 
Rotational constants in MHz : 135081.467361  9368.214865  9262.948771 

 Dipole components along the rotational axes: 
x,y,z [a.u.] :     1.625000    -0.017074    -0.001412 
x,y,z [Debye]:     4.130421    -0.043399    -0.003590 

 

                         *** MP2 UNRELAXED DENSITY ***

------------------------------------------------------------------------------
                       ORCA ELECTRIC PROPERTIES CALCULATION
------------------------------------------------------------------------------

Dipole Moment Calculation                       ... on
Quadrupole Moment Calculation                   ... off
Polarizability Calculation                      ... off
GBWName                                         ... 48mecn.sphere.gfn2.md.500k.prod1.3mecn.cm.17.dset.1mecn-orca.engrad-mp2.def2tzvp-12600.to.12637_job38.gbw
Electron density file                           ... 48mecn.sphere.gfn2.md.500k.prod1.3mecn.cm.17.dset.1mecn-orca.engrad-mp2.def2tzvp-12600.to.12637_job38.pmp2ur
The origin for moment calculation is the CENTER OF MASS  = (-0.000029, -0.000054 -0.000040)

-------------
DIPOLE MOMENT
-------------
                                X             Y             Z
Electronic contribution:      1.14124       2.11045       1.51533
Nuclear contribution   :     -1.74761      -3.31213      -2.36546
                        -----------------------------------------
Total Dipole Moment    :     -0.60636      -1.20169      -0.85013
                        -----------------------------------------
Magnitude (a.u.)       :      1.59200
Magnitude (Debye)      :      4.04653



--------------------
Rotational spectrum 
--------------------
 
Rotational constants in cm-1:     4.505833     0.312490     0.308979 
Rotational constants in MHz : 135081.467361  9368.214865  9262.948771 

 Dipole components along the rotational axes: 
x,y,z [a.u.] :     1.591882    -0.019012    -0.000480 
x,y,z [Debye]:     4.046244    -0.048326    -0.001220 

 

                           *** MP2 RELAXED DENSITY ***

------------------------------------------------------------------------------
                       ORCA ELECTRIC PROPERTIES CALCULATION
------------------------------------------------------------------------------

Dipole Moment Calculation                       ... on
Quadrupole Moment Calculation                   ... off
Polarizability Calculation                      ... off
GBWName                                         ... 48mecn.sphere.gfn2.md.500k.prod1.3mecn.cm.17.dset.1mecn-orca.engrad-mp2.def2tzvp-12600.to.12637_job38.gbw
Electron density file                           ... 48mecn.sphere.gfn2.md.500k.prod1.3mecn.cm.17.dset.1mecn-orca.engrad-mp2.def2tzvp-12600.to.12637_job38.pmp2re
The origin for moment calculation is the CENTER OF MASS  = (-0.000029, -0.000054 -0.000040)

-------------
DIPOLE MOMENT
-------------
                                X             Y             Z
Electronic contribution:      1.17545       2.18599       1.56220
Nuclear contribution   :     -1.74761      -3.31213      -2.36546
                        -----------------------------------------
Total Dipole Moment    :     -0.57215      -1.12614      -0.80326
                        -----------------------------------------
Magnitude (a.u.)       :      1.49693
Magnitude (Debye)      :      3.80489



--------------------
Rotational spectrum 
--------------------
 
Rotational constants in cm-1:     4.505833     0.312490     0.308979 
Rotational constants in MHz : 135081.467361  9368.214865  9262.948771 

 Dipole components along the rotational axes: 
x,y,z [a.u.] :     1.496878    -0.012115    -0.001029 
x,y,z [Debye]:     3.804762    -0.030795    -0.002616 

 

Timings for individual modules:

Sum of individual times         ...        9.849 sec (=   0.164 min)
GTO integral calculation        ...        1.277 sec (=   0.021 min)  13.0 %
SCF iterations                  ...        3.944 sec (=   0.066 min)  40.0 %
MP2 module                      ...        4.628 sec (=   0.077 min)  47.0 %



                             ****ORCA TERMINATED NORMALLY****
TOTAL RUN TIME: 0 days 0 hours 6 minutes 41 seconds 715 msec
