
                                 *****************
                                 * O   R   C   A *
                                 *****************

           --- An Ab Initio, DFT and Semiempirical electronic structure package ---

                  #######################################################
                  #                        -***-                        #
                  #          Department of theory and spectroscopy      #
                  #               Directorship: Frank Neese             #
                  #        Max Planck Institute fuer Kohlenforschung    #
                  #                Kaiser Wilhelm Platz 1               #
                  #                 D-45470 Muelheim/Ruhr               #
                  #                      Germany                        #
                  #                                                     #
                  #                  All rights reserved                #
                  #                        -***-                        #
                  #######################################################


                         Program Version 4.2.0 -  RELEASE  -


 With contributions from (in alphabetic order):
   Daniel Aravena         : Magnetic Suceptibility
   Michael Atanasov       : Ab Initio Ligand Field Theory (pilot matlab implementation)
   Alexander A. Auer      : GIAO ZORA, VPT2
   Ute Becker             : Parallelization
   Giovanni Bistoni       : ED, misc. LED, open-shell LED, HFLED
   Martin Brehm           : Molecular dynamics
   Dmytro Bykov           : SCF Hessian
   Vijay G. Chilkuri      : MRCI spin determinant printing, contributions to CSF-ICE
   Dipayan Datta          : RHF DLPNO-CCSD density
   Achintya Kumar Dutta   : EOM-CC, STEOM-CC
   Dmitry Ganyushin       : Spin-Orbit,Spin-Spin,Magnetic field MRCI
   Miquel Garcia          : C-PCM Hessian, Gaussian charge scheme
   Yang Guo               : DLPNO-NEVPT2, CIM, IAO-localization
   Andreas Hansen         : Spin unrestricted coupled pair/coupled cluster methods
   Benjamin Helmich-Paris : CASSCF linear response (MC-RPA)
   Lee Huntington         : MR-EOM, pCC
   Robert Izsak           : Overlap fitted RIJCOSX, COSX-SCS-MP3, EOM
   Christian Kollmar      : KDIIS, OOCD, Brueckner-CCSD(T), CCSD density
   Simone Kossmann        : Meta GGA functionals, TD-DFT gradient, OOMP2, MP2 Hessian
   Martin Krupicka        : AUTO-CI
   Lucas Lang             : DCDCAS
   Dagmar Lenk            : GEPOL surface, SMD
   Dimitrios Liakos       : Extrapolation schemes; Compound Job, initial MDCI parallelization
   Dimitrios Manganas     : Further ROCIS development; embedding schemes
   Dimitrios Pantazis     : SARC Basis sets
   Taras Petrenko         : DFT Hessian,TD-DFT gradient, ASA, ECA, R-Raman, ABS, FL, XAS/XES, NRVS
   Peter Pinski           : DLPNO-MP2, DLPNO-MP2 Gradient
   Christoph Reimann      : Effective Core Potentials
   Marius Retegan         : Local ZFS, SOC
   Christoph Riplinger    : Optimizer, TS searches, QM/MM, DLPNO-CCSD(T), (RO)-DLPNO pert. Triples
   Tobias Risthaus        : Range-separated hybrids, TD-DFT gradient, RPA, STAB
   Michael Roemelt        : Original ROCIS implementation
   Masaaki Saitow         : Open-shell DLPNO-CCSD energy and density
   Barbara Sandhoefer     : DKH picture change effects
   Avijit Sen             : IP-ROCIS
   Kantharuban Sivalingam : CASSCF convergence, NEVPT2, FIC-MRCI
   Bernardo de Souza      : ESD, SOC TD-DFT
   Georgi Stoychev        : AutoAux, RI-MP2 NMR
   Willem Van den Heuvel  : Paramagnetic NMR
   Boris Wezisla          : Elementary symmetry handling
   Frank Wennmohs         : Technical directorship


 We gratefully acknowledge several colleagues who have allowed us to
 interface, adapt or use parts of their codes:
   Stefan Grimme, W. Hujo, H. Kruse,             : VdW corrections, initial TS optimization,
                  C. Bannwarth                     DFT functionals, gCP, sTDA/sTD-DF
   Ed Valeev, F. Pavosevic, A. Kumar             : LibInt (2-el integral package), F12 methods
   Garnet Chan, S. Sharma, J. Yang, R. Olivares  : DMRG
   Ulf Ekstrom                                   : XCFun DFT Library
   Mihaly Kallay                                 : mrcc  (arbitrary order and MRCC methods)
   Andreas Klamt, Michael Diedenhofen            : otool_cosmo (COSMO solvation model)
   Jiri Pittner, Ondrej Demel                    : Mk-CCSD
   Frank Weinhold                                : gennbo (NPA and NBO analysis)
   Christopher J. Cramer and Donald G. Truhlar   : smd solvation model
   Lars Goerigk                                  : TD-DFT with DH, B97 family of functionals
   V. Asgeirsson, H. Jonsson                     : NEB implementation
   FAccTs GmbH                                   : IRC, NEB, NEB-TS, Multilevel, MM, QM/MM, CI optimization
   S Lehtola, MJT Oliveira, MAL Marques          : LibXC Library


 Your calculation uses the libint2 library for the computation of 2-el integrals
 For citations please refer to: http://libint.valeyev.net

 Your ORCA version has been built with support for libXC version: 4.2.3
 For citations please refer to: https://tddft.org/programs/libxc/

 This ORCA versions uses:
   CBLAS   interface :  Fast vector & matrix operations
   LAPACKE interface :  Fast linear algebra routines
   SCALAPACK package :  Parallel linear algebra routines


----- Orbital basis set information -----
Your calculation utilizes the basis: def2-TZVP
   F. Weigend and R. Ahlrichs, Phys. Chem. Chem. Phys. 7, 3297 (2005).

================================================================================
                                        WARNINGS
                       Please study these warnings very carefully!
================================================================================


WARNING: The frozen-core approximation for MP2-gradient calculations is turned on by default.

INFO   : the flag for use of LIBINT has been found!

----- Orbital basis set information -----
Your calculation utilizes the basis: def2-TZVP
   F. Weigend and R. Ahlrichs, Phys. Chem. Chem. Phys. 7, 3297 (2005).

================================================================================
                                        WARNINGS
                       Please study these warnings very carefully!
================================================================================


WARNING: The frozen-core approximation for MP2-gradient calculations is turned on by default.

INFO   : the flag for use of LIBINT has been found!

----- Orbital basis set information -----
Your calculation utilizes the basis: def2-TZVP
   F. Weigend and R. Ahlrichs, Phys. Chem. Chem. Phys. 7, 3297 (2005).

================================================================================
                                        WARNINGS
                       Please study these warnings very carefully!
================================================================================


WARNING: The frozen-core approximation for MP2-gradient calculations is turned on by default.

INFO   : the flag for use of LIBINT has been found!

----- Orbital basis set information -----
Your calculation utilizes the basis: def2-TZVP
   F. Weigend and R. Ahlrichs, Phys. Chem. Chem. Phys. 7, 3297 (2005).

================================================================================
                                        WARNINGS
                       Please study these warnings very carefully!
================================================================================


WARNING: The frozen-core approximation for MP2-gradient calculations is turned on by default.

INFO   : the flag for use of LIBINT has been found!

----- Orbital basis set information -----
Your calculation utilizes the basis: def2-TZVP
   F. Weigend and R. Ahlrichs, Phys. Chem. Chem. Phys. 7, 3297 (2005).

================================================================================
                                        WARNINGS
                       Please study these warnings very carefully!
================================================================================


WARNING: The frozen-core approximation for MP2-gradient calculations is turned on by default.

INFO   : the flag for use of LIBINT has been found!

----- Orbital basis set information -----
Your calculation utilizes the basis: def2-TZVP
   F. Weigend and R. Ahlrichs, Phys. Chem. Chem. Phys. 7, 3297 (2005).

================================================================================
                                        WARNINGS
                       Please study these warnings very carefully!
================================================================================


WARNING: The frozen-core approximation for MP2-gradient calculations is turned on by default.

INFO   : the flag for use of LIBINT has been found!

----- Orbital basis set information -----
Your calculation utilizes the basis: def2-TZVP
   F. Weigend and R. Ahlrichs, Phys. Chem. Chem. Phys. 7, 3297 (2005).

================================================================================
                                        WARNINGS
                       Please study these warnings very carefully!
================================================================================


WARNING: The frozen-core approximation for MP2-gradient calculations is turned on by default.

INFO   : the flag for use of LIBINT has been found!

----- Orbital basis set information -----
Your calculation utilizes the basis: def2-TZVP
   F. Weigend and R. Ahlrichs, Phys. Chem. Chem. Phys. 7, 3297 (2005).

================================================================================
                                        WARNINGS
                       Please study these warnings very carefully!
================================================================================


WARNING: The frozen-core approximation for MP2-gradient calculations is turned on by default.

INFO   : the flag for use of LIBINT has been found!

----- Orbital basis set information -----
Your calculation utilizes the basis: def2-TZVP
   F. Weigend and R. Ahlrichs, Phys. Chem. Chem. Phys. 7, 3297 (2005).

================================================================================
                                        WARNINGS
                       Please study these warnings very carefully!
================================================================================


WARNING: The frozen-core approximation for MP2-gradient calculations is turned on by default.

INFO   : the flag for use of LIBINT has been found!

----- Orbital basis set information -----
Your calculation utilizes the basis: def2-TZVP
   F. Weigend and R. Ahlrichs, Phys. Chem. Chem. Phys. 7, 3297 (2005).

================================================================================
                                        WARNINGS
                       Please study these warnings very carefully!
================================================================================


WARNING: The frozen-core approximation for MP2-gradient calculations is turned on by default.

INFO   : the flag for use of LIBINT has been found!

----- Orbital basis set information -----
Your calculation utilizes the basis: def2-TZVP
   F. Weigend and R. Ahlrichs, Phys. Chem. Chem. Phys. 7, 3297 (2005).

================================================================================
                                        WARNINGS
                       Please study these warnings very carefully!
================================================================================


WARNING: The frozen-core approximation for MP2-gradient calculations is turned on by default.

INFO   : the flag for use of LIBINT has been found!

----- Orbital basis set information -----
Your calculation utilizes the basis: def2-TZVP
   F. Weigend and R. Ahlrichs, Phys. Chem. Chem. Phys. 7, 3297 (2005).

================================================================================
                                        WARNINGS
                       Please study these warnings very carefully!
================================================================================


WARNING: The frozen-core approximation for MP2-gradient calculations is turned on by default.

INFO   : the flag for use of LIBINT has been found!

================================================================================
                                       INPUT FILE
================================================================================
NAME = 4h2o.temelso.etal.dset.3h2o.dset-orca.engrad-mp2.def2tzvp.inp
|  1> # 4h2o.temelso.etal.dset.3h2o.dset-orca.engrad-mp2.def2tzvp
|  2> ! MP2 def2-TZVP EnGrad TightSCF FrozenCore
|  3> 
|  4> %pal
|  5>     nprocs 12
|  6> end
|  7> 
|  8> %maxcore 8000
|  9> 
| 10> %scf
| 11>     ConvForced true
| 12> end
| 13> 
| 14> *xyz 0 1
| 15> O  -1.775038926  -0.918892747  -0.364922679
| 16> H  -2.193238926  -1.133492747  -1.207722679
| 17> H  -1.938238926   0.044607253  -0.241422679
| 18> O   0.950361074  -0.880492747  -0.009522679
| 19> H  -0.007238926  -1.019292747  -0.194222679
| 20> H   1.162261074  -1.517592747   0.683677321
| 21> O   0.854161074   1.832007253   0.424477321
| 22> H   1.012361074   0.864107253   0.332377321
| 23> H   1.496061074   2.243807253  -0.166922679
| 24> *
| 25> 
| 26> 
| 27> $new_job
| 28> 
| 29> # 4h2o.temelso.etal.dset.3h2o.dset-orca.engrad-mp2.def2tzvp
| 30> ! MP2 def2-TZVP EnGrad TightSCF FrozenCore
| 31> 
| 32> %pal
| 33>     nprocs 12
| 34> end
| 35> 
| 36> %maxcore 8000
| 37> 
| 38> %scf
| 39>     ConvForced true
| 40> end
| 41> 
| 42> *xyz 0 1
| 43> O  -0.868944166  -0.933924023  -0.227916621
| 44> H  -1.287144166  -1.148524023  -1.070716621
| 45> H  -1.032144166   0.029575977  -0.104416621
| 46> O   1.856455834  -0.895524023   0.127483379
| 47> H   0.898855834  -1.034324023  -0.057216621
| 48> H   2.068355834  -1.532624023   0.820683379
| 49> O  -0.942744166   1.798375977   0.062183379
| 50> H   0.019655834   1.941375977   0.215883379
| 51> H  -1.378244166   2.237775977   0.802983379
| 52> *
| 53> 
| 54> 
| 55> $new_job
| 56> 
| 57> # 4h2o.temelso.etal.dset.3h2o.dset-orca.engrad-mp2.def2tzvp
| 58> ! MP2 def2-TZVP EnGrad TightSCF FrozenCore
| 59> 
| 60> %pal
| 61>     nprocs 12
| 62> end
| 63> 
| 64> %maxcore 8000
| 65> 
| 66> %scf
| 67>     ConvForced true
| 68> end
| 69> 
| 70> *xyz 0 1
| 71> O  -0.865704295  -1.842189622  -0.350354319
| 72> H  -1.283904295  -2.056789622  -1.193154319
| 73> H  -1.028904295  -0.878689622  -0.226854319
| 74> O   1.763495705   0.908710378   0.439045681
| 75> H   1.921695705  -0.059189622   0.346945681
| 76> H   2.405395705   1.320510378  -0.152354319
| 77> O  -0.939504295   0.890110378  -0.060254319
| 78> H   0.022895705   1.033110378   0.093445681
| 79> H  -1.375004295   1.329510378   0.680545681
| 80> *
| 81> 
| 82> 
| 83> $new_job
| 84> 
| 85> # 4h2o.temelso.etal.dset.3h2o.dset-orca.engrad-mp2.def2tzvp
| 86> ! MP2 def2-TZVP EnGrad TightSCF FrozenCore
| 87> 
| 88> %pal
| 89>     nprocs 12
| 90> end
| 91> 
| 92> %maxcore 8000
| 93> 
| 94> %scf
| 95>     ConvForced true
| 96> end
| 97> 
| 98> *xyz 0 1
| 99> O   0.954292981  -1.788154445  -0.136317570
|100> H  -0.003307019  -1.926954445  -0.321017570
|101> H   1.166192981  -2.425254445   0.556882430
|102> O   0.858092981   0.924345555   0.297682430
|103> H   1.016292981  -0.043554445   0.205582430
|104> H   1.499992981   1.336145555  -0.293717570
|105> O  -1.844907019   0.905745555  -0.201617570
|106> H  -0.882507019   1.048745555  -0.047917570
|107> H  -2.280407019   1.345145555   0.539182430
|108> *
|109> 
|110> 
|111> $new_job
|112> 
|113> # 4h2o.temelso.etal.dset.3h2o.dset-orca.engrad-mp2.def2tzvp
|114> ! MP2 def2-TZVP EnGrad TightSCF FrozenCore
|115> 
|116> %pal
|117>     nprocs 12
|118> end
|119> 
|120> %maxcore 8000
|121> 
|122> %scf
|123>     ConvForced true
|124> end
|125> 
|126> *xyz 0 1
|127> O   0.943417578  -1.776026138  -0.299346069
|128> H   1.200517578  -2.442726138   0.349153931
|129> H  -0.018082422  -1.923226138  -0.450346069
|130> O   0.863917578   0.881773862   0.397953931
|131> H   1.540217578   1.372373862  -0.084446069
|132> H   1.020917578  -0.062726138   0.166253931
|133> O  -1.853982422   0.919673862  -0.058646069
|134> H  -0.892482422   1.066873862   0.092753931
|135> H  -2.110582422   1.585873862  -0.707746069
|136> *
|137> 
|138> 
|139> $new_job
|140> 
|141> # 4h2o.temelso.etal.dset.3h2o.dset-orca.engrad-mp2.def2tzvp
|142> ! MP2 def2-TZVP EnGrad TightSCF FrozenCore
|143> 
|144> %pal
|145>     nprocs 12
|146> end
|147> 
|148> %maxcore 8000
|149> 
|150> %scf
|151>     ConvForced true
|152> end
|153> 
|154> *xyz 0 1
|155> O   0.945661852  -0.883290547  -0.089918403
|156> H   1.202761852  -1.549990547   0.558581597
|157> H  -0.015838148  -1.030490547  -0.240918403
|158> O   0.866161852   1.774509453   0.607381597
|159> H   1.542461852   2.265109453   0.124981597
|160> H   1.023161852   0.830009453   0.375681597
|161> O  -1.772438148  -0.845690547  -0.545318403
|162> H  -1.929338148   0.098809453  -0.313918403
|163> H  -2.448438148  -1.336190547  -0.062218403
|164> *
|165> 
|166> 
|167> $new_job
|168> 
|169> # 4h2o.temelso.etal.dset.3h2o.dset-orca.engrad-mp2.def2tzvp
|170> ! MP2 def2-TZVP EnGrad TightSCF FrozenCore
|171> 
|172> %pal
|173>     nprocs 12
|174> end
|175> 
|176> %maxcore 8000
|177> 
|178> %scf
|179>     ConvForced true
|180> end
|181> 
|182> *xyz 0 1
|183> O   1.854022981  -0.919557078   0.058246069
|184> H   2.111122981  -1.586257078   0.706746069
|185> H   0.892522981  -1.066757078  -0.092753931
|186> O  -0.943377019   1.776142922   0.298946069
|187> H   0.018122981   1.923342922   0.450346069
|188> H  -1.199977019   2.442342922  -0.350153931
|189> O  -0.864077019  -0.881957078  -0.397153931
|190> H  -1.020977019   0.062542922  -0.165753931
|191> H  -1.540077019  -1.372457078   0.085946069
|192> *
|193> 
|194> 
|195> $new_job
|196> 
|197> # 4h2o.temelso.etal.dset.3h2o.dset-orca.engrad-mp2.def2tzvp
|198> ! MP2 def2-TZVP EnGrad TightSCF FrozenCore
|199> 
|200> %pal
|201>     nprocs 12
|202> end
|203> 
|204> %maxcore 8000
|205> 
|206> %scf
|207>     ConvForced true
|208> end
|209> 
|210> *xyz 0 1
|211> O   1.772347239   0.845596141   0.545707214
|212> H   2.448647239   1.336196141   0.063307214
|213> H   1.929347239  -0.098903859   0.314007214
|214> O  -0.945552761   0.883496141   0.089107214
|215> H   0.015947239   1.030696141   0.240507214
|216> H  -1.202152761   1.549696141  -0.559992786
|217> O  -0.866252761  -1.774603859  -0.606992786
|218> H  -1.023152761  -0.830103859  -0.375592786
|219> H  -1.542252761  -2.265103859  -0.123892786
|220> *
|221> 
|222> 
|223> $new_job
|224> 
|225> # 4h2o.temelso.etal.dset.3h2o.dset-orca.engrad-mp2.def2tzvp
|226> ! MP2 def2-TZVP EnGrad TightSCF FrozenCore
|227> 
|228> %pal
|229>     nprocs 12
|230> end
|231> 
|232> %maxcore 8000
|233> 
|234> %scf
|235>     ConvForced true
|236> end
|237> 
|238> *xyz 0 1
|239> O   1.659612623  -0.724928791   0.497202382
|240> H   1.367012623   0.018171209  -0.066197618
|241> H   2.607412623  -0.597228791   0.621502382
|242> O  -1.740787377  -0.197528791   0.620002382
|243> H  -1.441687377  -0.175128791   1.538502382
|244> H  -1.388087377  -1.043128791   0.267802382
|245> O   0.056312623   0.878171209  -1.140097618
|246> H  -0.685287377   0.731471209  -0.508997618
|247> H  -0.064687377   1.768871209  -1.489197618
|248> *
|249> 
|250> 
|251> $new_job
|252> 
|253> # 4h2o.temelso.etal.dset.3h2o.dset-orca.engrad-mp2.def2tzvp
|254> ! MP2 def2-TZVP EnGrad TightSCF FrozenCore
|255> 
|256> %pal
|257>     nprocs 12
|258> end
|259> 
|260> %maxcore 8000
|261> 
|262> %scf
|263>     ConvForced true
|264> end
|265> 
|266> *xyz 0 1
|267> O   1.763292496   0.277384699   0.436839908
|268> H   1.470692496   1.020484699  -0.126560092
|269> H   2.711092496   0.405084699   0.561139908
|270> O  -1.637107504   0.804784699   0.559639908
|271> H  -1.338007504   0.827184699   1.478139908
|272> H  -1.284407504  -0.040815301   0.207439908
|273> O  -0.249007504  -1.130215301  -0.990460092
|274> H  -0.214507504  -0.447615301  -1.678160092
|275> H   0.604892496  -1.001615301  -0.537560092
|276> *
|277> 
|278> 
|279> $new_job
|280> 
|281> # 4h2o.temelso.etal.dset.3h2o.dset-orca.engrad-mp2.def2tzvp
|282> ! MP2 def2-TZVP EnGrad TightSCF FrozenCore
|283> 
|284> %pal
|285>     nprocs 12
|286> end
|287> 
|288> %maxcore 8000
|289> 
|290> %scf
|291>     ConvForced true
|292> end
|293> 
|294> *xyz 0 1
|295> O   1.192500396  -0.110407840   1.028841666
|296> H   0.899900396   0.632692160   0.465441666
|297> H   2.140300396   0.017292160   1.153141666
|298> O  -0.410799604   1.492692160  -0.608458334
|299> H  -1.152399604   1.345992160   0.022641666
|300> H  -0.531799604   2.383392160  -0.957558334
|301> O  -0.819799604  -1.518007840  -0.398458334
|302> H  -0.785299604  -0.835407840  -1.086158334
|303> H   0.034100396  -1.389407840   0.054441666
|304> *
|305> 
|306> 
|307> $new_job
|308> 
|309> # 4h2o.temelso.etal.dset.3h2o.dset-orca.engrad-mp2.def2tzvp
|310> ! MP2 def2-TZVP EnGrad TightSCF FrozenCore
|311> 
|312> %pal
|313>     nprocs 12
|314> end
|315> 
|316> %maxcore 8000
|317> 
|318> %scf
|319>     ConvForced true
|320> end
|321> 
|322> *xyz 0 1
|323> O  -1.074369532   0.272782658   1.091959167
|324> H  -0.775269532   0.295182658   2.010459167
|325> H  -0.721669532  -0.572817342   0.739759167
|326> O   0.722730468   1.348482658  -0.668140833
|327> H  -0.018869532   1.201782658  -0.037040833
|328> H   0.601730468   2.239182658  -1.017240833
|329> O   0.313730468  -1.662217342  -0.458140833
|330> H   0.348230468  -0.979617342  -1.145840833
|331> H   1.167630468  -1.533617342  -0.005240833
|332> *
|333> 
|334>                          ****END OF INPUT****
================================================================================


                 $$$$$$$$$$$$$$$$$$$$$$$$$$$$$$$$$$$$$$$$$$$$$$ 
                 $ THERE ARE 12 JOBS TO BE PROCESSED THIS RUN $
                 $$$$$$$$$$$$$$$$$$$$$$$$$$$$$$$$$$$$$$$$$$$$$$ 




                 $$$$$$$$$$$$$$$$  JOB NUMBER  1 $$$$$$$$$$$$$$


                     *******************************
                     * Energy+Gradient Calculation *
                     *******************************

---------------------------------
CARTESIAN COORDINATES (ANGSTROEM)
---------------------------------
  O     -1.775039   -0.918893   -0.364923
  H     -2.193239   -1.133493   -1.207723
  H     -1.938239    0.044607   -0.241423
  O      0.950361   -0.880493   -0.009523
  H     -0.007239   -1.019293   -0.194223
  H      1.162261   -1.517593    0.683677
  O      0.854161    1.832007    0.424477
  H      1.012361    0.864107    0.332377
  H      1.496061    2.243807   -0.166923

----------------------------
CARTESIAN COORDINATES (A.U.)
----------------------------
  NO LB      ZA    FRAG     MASS         X           Y           Z
   0 O     8.0000    0    15.999   -3.354337   -1.736456   -0.689604
   1 H     1.0000    0     1.008   -4.144621   -2.141991   -2.282265
   2 H     1.0000    0     1.008   -3.662741    0.084295   -0.456223
   3 O     8.0000    0    15.999    1.795922   -1.663890   -0.017995
   4 H     1.0000    0     1.008   -0.013680   -1.926184   -0.367028
   5 H     1.0000    0     1.008    2.196355   -2.867835    1.291963
   6 O     8.0000    0    15.999    1.614131    3.461992    0.802146
   7 H     1.0000    0     1.008    1.913085    1.632926    0.628102
   8 H     1.0000    0     1.008    2.827146    4.240181   -0.315438

--------------------------------
INTERNAL COORDINATES (ANGSTROEM)
--------------------------------
 O      0   0   0     0.000000000000     0.00000000     0.00000000
 H      1   0   0     0.965016186393     0.00000000     0.00000000
 H      1   2   0     0.984996822330   104.78701950     0.00000000
 O      1   2   3     2.748743145512   123.07303403   250.25798596
 H      4   1   2     0.985077301535     8.08435971   310.20628916
 H      4   1   2     0.965051428681   107.53929957   239.02515673
 O      4   1   2     2.748684538102    89.97133568   114.12129453
 H      7   4   1     0.985058404360     8.09755512   160.67811646
 H      7   4   1     0.965074510077   107.52063836   232.05635428

---------------------------
INTERNAL COORDINATES (A.U.)
---------------------------
 O      0   0   0     0.000000000000     0.00000000     0.00000000
 H      1   0   0     1.823616307083     0.00000000     0.00000000
 H      1   2   0     1.861374236986   104.78701950     0.00000000
 O      1   2   3     5.194371757511   123.07303403   250.25798596
 H      4   1   2     1.861526320644     8.08435971   310.20628916
 H      4   1   2     1.823682905357   107.53929957   239.02515673
 O      4   1   2     5.194261005556    89.97133568   114.12129453
 H      7   4   1     1.861490610158     8.09755512   160.67811646
 H      7   4   1     1.823726522873   107.52063836   232.05635428

---------------------
BASIS SET INFORMATION
---------------------
There are 2 groups of distinct atoms

 Group   1 Type O   : 11s6p2d1f contracted to 5s3p2d1f pattern {62111/411/11/1}
 Group   2 Type H   : 5s1p contracted to 3s1p pattern {311/1}

Atom   0O    basis set group =>   1
Atom   1H    basis set group =>   2
Atom   2H    basis set group =>   2
Atom   3O    basis set group =>   1
Atom   4H    basis set group =>   2
Atom   5H    basis set group =>   2
Atom   6O    basis set group =>   1
Atom   7H    basis set group =>   2
Atom   8H    basis set group =>   2


           ************************************************************
           *        Program running with 12 parallel MPI-processes    *
           *              working on a common directory               *
           ************************************************************
------------------------------------------------------------------------------
                           ORCA GTO INTEGRAL CALCULATION
------------------------------------------------------------------------------

                         BASIS SET STATISTICS AND STARTUP INFO

 # of primitive gaussian shells          ...   96
 # of primitive gaussian functions       ...  186
 # of contracted shells                  ...   57
 # of contracted basis functions         ...  129
 Highest angular momentum                ...    3
 Maximum contraction depth               ...    6
 Integral package used                   ... LIBINT
 Integral threshhold            Thresh   ...  2.500e-11
 Primitive cut-off              TCut     ...  2.500e-12


------------------------------ INTEGRAL EVALUATION ----------------------------


 * One electron integrals 
 Pre-screening matrix                    ... done
 Shell pair data                         ... done (   0.000 sec)



           ************************************************************
           *        Program running with 12 parallel MPI-processes    *
           *              working on a common directory               *
           ************************************************************
-------------------------------------------------------------------------------
                                 ORCA SCF
-------------------------------------------------------------------------------

------------
SCF SETTINGS
------------
Hamiltonian:
 Ab initio Hamiltonian  Method          .... Hartree-Fock(GTOs)


General Settings:
 Integral files         IntName         .... 4h2o.temelso.etal.dset.3h2o.dset-orca.engrad-mp2.def2tzvp
 Hartree-Fock type      HFTyp           .... RHF
 Total Charge           Charge          ....    0
 Multiplicity           Mult            ....    1
 Number of Electrons    NEL             ....   30
 Basis Dimension        Dim             ....  129
 Nuclear Repulsion      ENuc            ....     79.5388808059 Eh

Convergence Acceleration:
 DIIS                   CNVDIIS         .... on
   Start iteration      DIISMaxIt       ....    12
   Startup error        DIISStart       ....  0.200000
   # of expansion vecs  DIISMaxEq       ....     5
   Bias factor          DIISBfac        ....   1.050
   Max. coefficient     DIISMaxC        ....  10.000
 Newton-Raphson         CNVNR           .... off
 SOSCF                  CNVSOSCF        .... on
   Start iteration      SOSCFMaxIt      ....   150
   Startup grad/error   SOSCFStart      ....  0.003300
 Level Shifting         CNVShift        .... on
   Level shift para.    LevelShift      ....    0.2500
   Turn off err/grad.   ShiftErr        ....    0.0010
 Zerner damping         CNVZerner       .... off
 Static damping         CNVDamp         .... on
   Fraction old density DampFac         ....    0.7000
   Max. Damping (<1)    DampMax         ....    0.9800
   Min. Damping (>=0)   DampMin         ....    0.0000
   Turn off err/grad.   DampErr         ....    0.1000
 Fernandez-Rico         CNVRico         .... off

SCF Procedure:
 Maximum # iterations   MaxIter         ....   125
 SCF integral mode      SCFMode         .... Direct
   Integral package                     .... LIBINT
 Reset frequency        DirectResetFreq ....    20
 Integral Threshold     Thresh          ....  2.500e-11 Eh
 Primitive CutOff       TCut            ....  2.500e-12 Eh

Convergence Tolerance:
 Convergence Check Mode ConvCheckMode   .... Total+1el-Energy
 Convergence forced     ConvForced      .... 1
 Energy Change          TolE            ....  1.000e-08 Eh
 1-El. energy change                    ....  1.000e-05 Eh
 Orbital Gradient       TolG            ....  1.000e-05
 Orbital Rotation angle TolX            ....  1.000e-05
 DIIS Error             TolErr          ....  5.000e-07


Diagonalization of the overlap matrix:
Smallest eigenvalue                        ... 5.026e-03
Time for diagonalization                   ...    0.002 sec
Threshold for overlap eigenvalues          ... 1.000e-08
Number of eigenvalues below threshold      ... 0
Time for construction of square roots      ...    0.001 sec
Total time needed                          ...    0.004 sec

-------------------
DFT GRID GENERATION
-------------------

General Integration Accuracy     IntAcc      ...  4.340
Radial Grid Type                 RadialGrid  ... Gauss-Chebyshev
Angular Grid (max. acc.)         AngularGrid ... Lebedev-110
Angular grid pruning method      GridPruning ... 3 (G Style)
Weight generation scheme         WeightScheme... Becke
Basis function cutoff            BFCut       ...    1.0000e-11
Integration weight cutoff        WCut        ...    1.0000e-14
Grids for H and He will be reduced by one unit

# of grid points (after initial pruning)     ...   9912 (   0.0 sec)
# of grid points (after weights+screening)   ...   9590 (   0.0 sec)
nearest neighbour list constructed           ...    0.0 sec
Grid point re-assignment to atoms done       ...    0.0 sec
Grid point division into batches done        ...    0.0 sec
Reduced shell lists constructed in    0.0 sec

Total number of grid points                  ...     9590
Total number of batches                      ...      154
Average number of points per batch           ...       62
Average number of grid points per atom       ...     1066
Average number of shells per batch           ...    37.79 (66.29%)
Average number of basis functions per batch  ...    81.50 (63.18%)
Average number of large shells per batch     ...    29.79 (78.83%)
Average number of large basis fcns per batch ...    61.50 (75.46%)
Maximum spatial batch extension              ...  10.47, 10.07, 14.68 au
Average spatial batch extension              ...   0.23,  0.23,  0.27 au

Time for grid setup =    0.015 sec

------------------------------
INITIAL GUESS: MODEL POTENTIAL
------------------------------
Loading Hartree-Fock densities                     ... done
Calculating cut-offs                               ... done
Setting up the integral package                    ... done
Initializing the effective Hamiltonian             ... done
Starting the Coulomb interaction                   ... done (   0.0 sec)
Reading the grid                                   ... done
Mapping shells                                     ... done
Starting the XC term evaluation                    ... done (   0.0 sec)
Transforming the Hamiltonian                       ... done (   0.0 sec)
Diagonalizing the Hamiltonian                      ... done (   0.0 sec)
Back transforming the eigenvectors                 ... done (   0.0 sec)
Now organizing SCF variables                       ... done
                      ------------------
                      INITIAL GUESS DONE (   0.1 sec)
                      ------------------
--------------
SCF ITERATIONS
--------------
ITER       Energy         Delta-E        Max-DP      RMS-DP      [F,P]     Damp
               ***  Starting incremental Fock matrix formation  ***
  0   -227.9158541931   0.000000000000 0.04376269  0.00137482  0.3471867 0.7000
  1   -228.0227125287  -0.106858335576 0.02920491  0.00095017  0.2164188 0.7000
                               ***Turning on DIIS***
  2   -228.0791674881  -0.056454959448 0.01634339  0.00052782  0.1634645 0.7000
  3   -228.5913260836  -0.512158595467 0.00716373  0.00023692  0.1217882 0.7000
  4   -228.4878577772   0.103468306390 0.01584752  0.00054329  0.0861701 0.0000
  5   -228.2085512970   0.279306480212 0.00175002  0.00008627  0.0052549 0.0000
                      *** Initiating the SOSCF procedure ***
                           *** Shutting down DIIS ***
                      *** Re-Reading the Fockian *** 
                      *** Removing any level shift *** 
ITER      Energy       Delta-E        Grad      Rot      Max-DP    RMS-DP
  6   -228.19278046   0.0157708348  0.000866  0.000866  0.001159  0.000052
               *** Restarting incremental Fock matrix formation ***
  7   -228.18785775   0.0049227145  0.000284  0.000389  0.000565  0.000023
  8   -228.18786177  -0.0000040198  0.000159  0.000293  0.000425  0.000019
  9   -228.18786271  -0.0000009468  0.000065  0.000044  0.000086  0.000003
 10   -228.18786279  -0.0000000785  0.000012  0.000007  0.000017  0.000001
 11   -228.18786279  -0.0000000020  0.000003  0.000003  0.000004  0.000000
                  ***Gradient check signals convergence***
              ***Rediagonalizing the Fockian in SOSCF/NRSCF***

               *****************************************************
               *                     SUCCESS                       *
               *           SCF CONVERGED AFTER  12 CYCLES          *
               *****************************************************


----------------
TOTAL SCF ENERGY
----------------

Total Energy       :         -228.18786279 Eh           -6209.30742 eV

Components:
Nuclear Repulsion  :           79.53888081 Eh            2164.36298 eV
Electronic Energy  :         -307.72674360 Eh           -8373.67040 eV
One Electron Energy:         -473.28887318 Eh          -12878.84499 eV
Two Electron Energy:          165.56212958 Eh            4505.17458 eV

Virial components:
Potential Energy   :         -456.07384574 Eh          -12410.40028 eV
Kinetic Energy     :          227.88598294 Eh            6201.09285 eV
Virial Ratio       :            2.00132470


---------------
SCF CONVERGENCE
---------------

  Last Energy change         ...   -1.6053e-10  Tolerance :   1.0000e-08
  Last MAX-Density change    ...    1.6488e-06  Tolerance :   1.0000e-07
  Last RMS-Density change    ...    5.1319e-08  Tolerance :   5.0000e-09
  Last Orbital Gradient      ...    8.3848e-07  Tolerance :   1.0000e-05
  Last Orbital Rotation      ...    8.3228e-07  Tolerance :   1.0000e-05

             **** THE GBW FILE WAS UPDATED (4h2o.temelso.etal.dset.3h2o.dset-orca.engrad-mp2.def2tzvp.gbw) ****
             **** DENSITY FILE WAS UPDATED (4h2o.temelso.etal.dset.3h2o.dset-orca.engrad-mp2.def2tzvp.scfp) ****
             **** ENERGY FILE WAS UPDATED (4h2o.temelso.etal.dset.3h2o.dset-orca.engrad-mp2.def2tzvp.en.tmp) ****
             **** THE GBW FILE WAS UPDATED (4h2o.temelso.etal.dset.3h2o.dset-orca.engrad-mp2.def2tzvp.gbw) ****
             **** DENSITY FILE WAS UPDATED (4h2o.temelso.etal.dset.3h2o.dset-orca.engrad-mp2.def2tzvp.scfp) ****
----------------
ORBITAL ENERGIES
----------------

  NO   OCC          E(Eh)            E(eV) 
   0   2.0000     -20.598478      -560.5131 
   1   2.0000     -20.555044      -559.3312 
   2   2.0000     -20.518326      -558.3320 
   3   2.0000      -1.380861       -37.5751 
   4   2.0000      -1.341732       -36.5104 
   5   2.0000      -1.300725       -35.3945 
   6   2.0000      -0.743290       -20.2259 
   7   2.0000      -0.714603       -19.4453 
   8   2.0000      -0.679375       -18.4867 
   9   2.0000      -0.622992       -16.9525 
  10   2.0000      -0.583364       -15.8741 
  11   2.0000      -0.545076       -14.8323 
  12   2.0000      -0.532181       -14.4814 
  13   2.0000      -0.498268       -13.5586 
  14   2.0000      -0.467968       -12.7341 
  15   0.0000       0.108731         2.9587 
  16   0.0000       0.154938         4.2161 
  17   0.0000       0.175601         4.7783 
  18   0.0000       0.196011         5.3337 
  19   0.0000       0.303988         8.2719 
  20   0.0000       0.327402         8.9091 
  21   0.0000       0.467682        12.7263 
  22   0.0000       0.481842        13.1116 
  23   0.0000       0.523427        14.2432 
  24   0.0000       0.554000        15.0751 
  25   0.0000       0.573420        15.6036 
  26   0.0000       0.589437        16.0394 
  27   0.0000       0.612819        16.6756 
  28   0.0000       0.649705        17.6794 
  29   0.0000       0.653791        17.7906 
  30   0.0000       0.665634        18.1128 
  31   0.0000       0.730540        19.8790 
  32   0.0000       0.744082        20.2475 
  33   0.0000       0.766515        20.8579 
  34   0.0000       0.790101        21.4998 
  35   0.0000       0.815514        22.1913 
  36   0.0000       0.917349        24.9623 
  37   0.0000       0.959418        26.1071 
  38   0.0000       1.018245        27.7079 
  39   0.0000       1.357930        36.9512 
  40   0.0000       1.392378        37.8885 
  41   0.0000       1.423676        38.7402 
  42   0.0000       1.450130        39.4600 
  43   0.0000       1.482693        40.3461 
  44   0.0000       1.506778        41.0015 
  45   0.0000       1.571596        42.7653 
  46   0.0000       1.601768        43.5863 
  47   0.0000       1.629966        44.3536 
  48   0.0000       1.790839        48.7312 
  49   0.0000       1.836297        49.9682 
  50   0.0000       1.866337        50.7856 
  51   0.0000       1.879572        51.1458 
  52   0.0000       1.985800        54.0364 
  53   0.0000       2.035171        55.3798 
  54   0.0000       2.053165        55.8694 
  55   0.0000       2.081441        56.6389 
  56   0.0000       2.157627        58.7120 
  57   0.0000       2.245860        61.1129 
  58   0.0000       2.275773        61.9269 
  59   0.0000       2.306349        62.7589 
  60   0.0000       2.329172        63.3800 
  61   0.0000       2.386384        64.9368 
  62   0.0000       2.397371        65.2358 
  63   0.0000       2.441183        66.4280 
  64   0.0000       2.479524        67.4713 
  65   0.0000       2.539480        69.1028 
  66   0.0000       2.588661        70.4410 
  67   0.0000       2.593860        70.5825 
  68   0.0000       2.613051        71.1047 
  69   0.0000       2.686232        73.0961 
  70   0.0000       2.723590        74.1126 
  71   0.0000       2.771701        75.4218 
  72   0.0000       2.901106        78.9431 
  73   0.0000       2.918014        79.4032 
  74   0.0000       2.950090        80.2760 
  75   0.0000       2.966220        80.7149 
  76   0.0000       3.006683        81.8160 
  77   0.0000       3.041309        82.7582 
  78   0.0000       3.070119        83.5422 
  79   0.0000       3.115489        84.7768 
  80   0.0000       3.181080        86.5616 
  81   0.0000       3.229939        87.8911 
  82   0.0000       3.365647        91.5839 
  83   0.0000       3.446747        93.7908 
  84   0.0000       3.976378       108.2027 
  85   0.0000       4.049663       110.1969 
  86   0.0000       4.120539       112.1256 
  87   0.0000       4.277507       116.3969 
  88   0.0000       4.339782       118.0915 
  89   0.0000       4.377402       119.1152 
  90   0.0000       5.518875       150.1762 
  91   0.0000       5.556526       151.2007 
  92   0.0000       5.586672       152.0211 
  93   0.0000       5.623099       153.0123 
  94   0.0000       5.662499       154.0844 
  95   0.0000       5.691434       154.8718 
  96   0.0000       5.787361       157.4821 
  97   0.0000       5.798627       157.7887 
  98   0.0000       5.834282       158.7589 
  99   0.0000       5.861164       159.4904 
 100   0.0000       5.867537       159.6638 
 101   0.0000       5.877951       159.9472 
 102   0.0000       5.910382       160.8297 
 103   0.0000       5.913962       160.9271 
 104   0.0000       5.950992       161.9347 
 105   0.0000       6.429689       174.9607 
 106   0.0000       6.475233       176.2000 
 107   0.0000       6.513897       177.2521 
 108   0.0000       6.665707       181.3831 
 109   0.0000       6.704948       182.4509 
 110   0.0000       6.741837       183.4547 
 111   0.0000       6.848252       186.3504 
 112   0.0000       6.865863       186.8296 
 113   0.0000       6.890017       187.4869 
 114   0.0000       6.901333       187.7948 
 115   0.0000       6.937407       188.7764 
 116   0.0000       6.946441       189.0223 
 117   0.0000       6.998396       190.4360 
 118   0.0000       7.013264       190.8406 
 119   0.0000       7.077134       192.5786 
 120   0.0000       7.355276       200.1472 
 121   0.0000       7.421211       201.9414 
 122   0.0000       7.472981       203.3501 
 123   0.0000       7.486219       203.7104 
 124   0.0000       7.556485       205.6224 
 125   0.0000       7.576761       206.1741 
 126   0.0000      44.866643      1220.8834 
 127   0.0000      44.947767      1223.0909 
 128   0.0000      44.969651      1223.6864 

                    ********************************
                    * MULLIKEN POPULATION ANALYSIS *
                    ********************************

-----------------------
MULLIKEN ATOMIC CHARGES
-----------------------
   0 O :   -0.723827
   1 H :    0.364909
   2 H :    0.382033
   3 O :   -0.752280
   4 H :    0.402945
   5 H :    0.352309
   6 O :   -0.751203
   7 H :    0.392189
   8 H :    0.332926
Sum of atomic charges:   -0.0000000

--------------------------------
MULLIKEN REDUCED ORBITAL CHARGES
--------------------------------
  0 O s       :     3.804797  s :     3.804797
      pz      :     1.578667  p :     4.892833
      px      :     1.844736
      py      :     1.469430
      dz2     :     0.009021  d :     0.024708
      dxz     :     0.005516
      dyz     :     0.000419
      dx2y2   :     0.007749
      dxy     :     0.002002
      f0      :     0.000089  f :     0.001489
      f+1     :     0.000477
      f-1     :     0.000259
      f+2     :     0.000121
      f-2     :     0.000095
      f+3     :     0.000121
      f-3     :     0.000327
  1 H s       :     0.590222  s :     0.590222
      pz      :     0.019027  p :     0.044869
      px      :     0.015193
      py      :     0.010649
  2 H s       :     0.575865  s :     0.575865
      pz      :     0.010391  p :     0.042102
      px      :     0.012077
      py      :     0.019634
  3 O s       :     3.801371  s :     3.801371
      pz      :     1.684518  p :     4.925898
      px      :     1.523148
      py      :     1.718232
      dz2     :     0.004187  d :     0.023582
      dxz     :     0.000594
      dyz     :     0.008148
      dx2y2   :     0.008609
      dxy     :     0.002045
      f0      :     0.000118  f :     0.001429
      f+1     :     0.000201
      f-1     :     0.000350
      f+2     :     0.000308
      f-2     :     0.000155
      f+3     :     0.000247
      f-3     :     0.000050
  4 H s       :     0.544190  s :     0.544190
      pz      :     0.011531  p :     0.052866
      px      :     0.030787
      py      :     0.010548
  5 H s       :     0.602525  s :     0.602525
      pz      :     0.017634  p :     0.045166
      px      :     0.011142
      py      :     0.016390
  6 O s       :     3.809225  s :     3.809225
      pz      :     1.771231  p :     4.915945
      px      :     1.725507
      py      :     1.419207
      dz2     :     0.003380  d :     0.024561
      dxz     :     0.007435
      dyz     :     0.002681
      dx2y2   :     0.007105
      dxy     :     0.003961
      f0      :     0.000171  f :     0.001472
      f+1     :     0.000165
      f-1     :     0.000257
      f+2     :     0.000105
      f-2     :     0.000351
      f+3     :     0.000067
      f-3     :     0.000357
  7 H s       :     0.554084  s :     0.554084
      pz      :     0.011688  p :     0.053727
      px      :     0.011216
      py      :     0.030823
  8 H s       :     0.621417  s :     0.621417
      pz      :     0.016848  p :     0.045656
      px      :     0.016547
      py      :     0.012261


                     *******************************
                     * LOEWDIN POPULATION ANALYSIS *
                     *******************************

----------------------
LOEWDIN ATOMIC CHARGES
----------------------
   0 O :   -0.298384
   1 H :    0.168370
   2 H :    0.188513
   3 O :   -0.319314
   4 H :    0.159631
   5 H :    0.160506
   6 O :   -0.365114
   7 H :    0.154268
   8 H :    0.151525

-------------------------------
LOEWDIN REDUCED ORBITAL CHARGES
-------------------------------
  0 O s       :     3.461090  s :     3.461090
      pz      :     1.567289  p :     4.803037
      px      :     1.779207
      py      :     1.456540
      dz2     :     0.011798  d :     0.032114
      dxz     :     0.006916
      dyz     :     0.000806
      dx2y2   :     0.010655
      dxy     :     0.001939
      f0      :     0.000145  f :     0.002143
      f+1     :     0.000744
      f-1     :     0.000411
      f+2     :     0.000097
      f-2     :     0.000109
      f+3     :     0.000182
      f-3     :     0.000454
  1 H s       :     0.669842  s :     0.669842
      pz      :     0.077386  p :     0.161788
      px      :     0.053356
      py      :     0.031046
  2 H s       :     0.658365  s :     0.658365
      pz      :     0.030203  p :     0.153122
      px      :     0.040031
      py      :     0.082887
  3 O s       :     3.456023  s :     3.456023
      pz      :     1.657937  p :     4.830954
      px      :     1.496508
      py      :     1.676509
      dz2     :     0.004929  d :     0.030277
      dxz     :     0.001020
      dyz     :     0.010679
      dx2y2   :     0.011676
      dxy     :     0.001974
      f0      :     0.000120  f :     0.002060
      f+1     :     0.000250
      f-1     :     0.000531
      f+2     :     0.000409
      f-2     :     0.000183
      f+3     :     0.000409
      f-3     :     0.000158
  4 H s       :     0.656736  s :     0.656736
      pz      :     0.036161  p :     0.183634
      px      :     0.111505
      py      :     0.035968
  5 H s       :     0.676781  s :     0.676781
      pz      :     0.065907  p :     0.162713
      px      :     0.033175
      py      :     0.063631
  6 O s       :     3.467330  s :     3.467330
      pz      :     1.746429  p :     4.865249
      px      :     1.714361
      py      :     1.404458
      dz2     :     0.003360  d :     0.030473
      dxz     :     0.008933
      dyz     :     0.003597
      dx2y2   :     0.009396
      dxy     :     0.005186
      f0      :     0.000161  f :     0.002062
      f+1     :     0.000183
      f-1     :     0.000330
      f+2     :     0.000163
      f-2     :     0.000580
      f+3     :     0.000117
      f-3     :     0.000526
  7 H s       :     0.661876  s :     0.661876
      pz      :     0.036807  p :     0.183857
      px      :     0.036415
      py      :     0.110634
  8 H s       :     0.686423  s :     0.686423
      pz      :     0.061102  p :     0.162052
      px      :     0.063437
      py      :     0.037512


                      *****************************
                      * MAYER POPULATION ANALYSIS *
                      *****************************

  NA   - Mulliken gross atomic population
  ZA   - Total nuclear charge
  QA   - Mulliken gross atomic charge
  VA   - Mayer's total valence
  BVA  - Mayer's bonded valence
  FA   - Mayer's free valence

  ATOM       NA         ZA         QA         VA         BVA        FA
  0 O      8.7238     8.0000    -0.7238     1.7624     1.7624    -0.0000
  1 H      0.6351     1.0000     0.3649     0.8813     0.8813    -0.0000
  2 H      0.6180     1.0000     0.3820     0.8697     0.8697    -0.0000
  3 O      8.7523     8.0000    -0.7523     1.7203     1.7203    -0.0000
  4 H      0.5971     1.0000     0.4029     0.8681     0.8681    -0.0000
  5 H      0.6477     1.0000     0.3523     0.8909     0.8909    -0.0000
  6 O      8.7512     8.0000    -0.7512     1.7131     1.7131    -0.0000
  7 H      0.6078     1.0000     0.3922     0.8816     0.8816    -0.0000
  8 H      0.6671     1.0000     0.3329     0.9038     0.9038    -0.0000

  Mayer bond orders larger than 0.100000
B(  0-O ,  1-H ) :   0.8745 B(  0-O ,  2-H ) :   0.8590 B(  3-O ,  4-H ) :   0.8173 
B(  3-O ,  5-H ) :   0.8838 B(  6-O ,  7-H ) :   0.8250 B(  6-O ,  8-H ) :   0.8994 


-------
TIMINGS
-------

Total SCF time: 0 days 0 hours 0 min 2 sec 

Total time                  ....       2.006 sec
Sum of individual times     ....       1.843 sec  ( 91.9%)

Fock matrix formation       ....       1.717 sec  ( 85.6%)
Diagonalization             ....       0.014 sec  (  0.7%)
Density matrix formation    ....       0.003 sec  (  0.1%)
Population analysis         ....       0.003 sec  (  0.1%)
Initial guess               ....       0.078 sec  (  3.9%)
Orbital Transformation      ....       0.000 sec  (  0.0%)
Orbital Orthonormalization  ....       0.000 sec  (  0.0%)
DIIS solution               ....       0.005 sec  (  0.3%)
SOSCF solution              ....       0.007 sec  (  0.4%)


           ************************************************************
           *        Program running with 12 parallel MPI-processes    *
           *              working on a common directory               *
           ************************************************************

------------------------------------------------------------------------------
                                ORCA  MP2 
------------------------------------------------------------------------------

Freezing NCore=6 chemical core electrons
MP2 will be done in the AO integral direct mode
The Q1-step will be done using symmetric double matrices
Dimension of the basis                    ...  129
Memory devoted for MP2                    ... 8000 MB   
Memory needed for all in one shot         ...    9 MB
Number of MOs that can be treated together...  968      
MP2 density construction                  ... relaxed
The MP2 gradient is requested => amplitudes will be stored on disk
Total number of MOs              ...   12
Number of MOs treated per batch  ...    1 
Number of batches necessary      ...    1 
OPERATORS   0/  0 PASS   0
-----------------------------------------------
 MP2 CORRELATION ENERGY   :     -0.772675739 Eh
-----------------------------------------------


---------------------
MP2 DENSITY FORMATION
---------------------

Completing the external part of the density      ... done
Storing the unrelaxed density                    ... done

Calculating G(D)                                 ... done
Completing the Lagrangian                        ... done
Solving the Z-vector equations                   ... 

------------------------------------------------------------------------------
                           ORCA CP-SCF CALCULATION
------------------------------------------------------------------------------

Input orbitals are from        ... 4h2o.temelso.etal.dset.3h2o.dset-orca.engrad-mp2.def2tzvp.gbw
Input Perturbation             ... 4h2o.temelso.etal.dset.3h2o.dset-orca.engrad-mp2.def2tzvp.pin.tmp
Wavefunction output            ... 4h2o.temelso.etal.dset.3h2o.dset-orca.engrad-mp2.def2tzvp.pout.tmp
Perturbation mode              ... Real perturbation (singlet)
Solver                         ... POPLE
Max. number of iterations      ... 128
Convergence tolerance          ... 1.000e-08
Integral handling              ... Direct
Number of perturbations        ... 1
Number of operators            ... 1
Orbital ranges used for CP-SCF:
 Operator 0:  Orbitals   0... 14  to  15...128
Variables per vector in CP-SCF ... 1710
Number of vectors sought       ... 1
     CP-SCF ITERATION   0: 
     CP-SCF ITERATION   1:      0.000339487382
     CP-SCF ITERATION   2:      0.000008076241
     CP-SCF ITERATION   3:      0.000000321521
     CP-SCF ITERATION   4:      0.000000030172
     CP-SCF ITERATION   5:      0.000000002159
                                                 ... done
Finalizing the relaxed density                   ... done
Transforming P to the AO basis                   ... done
Storing the relaxed density                      ... done

------------------------------------
ENERGY WEIGHTED DENSITY FINALIZATION
------------------------------------

Gathering the parts of the W-matrix              ...                                                      done
Forming the Z-density                            ... done
Transforming Z to the AO basis                   ... done
Calculating G(Z)                                 ... done
Finalizing the W-matrix                          ...                                                      done
Transforming W to the AO basis and storing       ... done

                *********************************************
                * UNRELAXED MP2 DENSITY POPULATION ANALYSIS *
                *********************************************

------------------------------------------------------------------------------
                           ORCA POPULATION ANALYSIS
------------------------------------------------------------------------------
Input electron density              ... 4h2o.temelso.etal.dset.3h2o.dset-orca.engrad-mp2.def2tzvp.pmp2ur
BaseName (.gbw .S,...)              ... 4h2o.temelso.etal.dset.3h2o.dset-orca.engrad-mp2.def2tzvp

                    ********************************
                    * MULLIKEN POPULATION ANALYSIS *
                    ********************************

-----------------------
MULLIKEN ATOMIC CHARGES
-----------------------
   0 O :   -0.718076
   1 H :    0.362674
   2 H :    0.379375
   3 O :   -0.746080
   4 H :    0.399131
   5 H :    0.349987
   6 O :   -0.745859
   7 H :    0.388219
   8 H :    0.330629
Sum of atomic charges:   -0.0000000

--------------------------------
MULLIKEN REDUCED ORBITAL CHARGES
--------------------------------
  0 O s       :     3.799791  s :     3.799791
      pz      :     1.569255  p :     4.862584
      px      :     1.832613
      py      :     1.460716
      dz2     :     0.014212  d :     0.051644
      dxz     :     0.010943
      dyz     :     0.005805
      dx2y2   :     0.013110
      dxy     :     0.007574
      f0      :     0.000466  f :     0.004058
      f+1     :     0.000840
      f-1     :     0.000624
      f+2     :     0.000490
      f-2     :     0.000454
      f+3     :     0.000493
      f-3     :     0.000690
  1 H s       :     0.590914  s :     0.590914
      pz      :     0.019207  p :     0.046413
      px      :     0.015881
      py      :     0.011325
  2 H s       :     0.577039  s :     0.577039
      pz      :     0.011138  p :     0.043587
      px      :     0.012892
      py      :     0.019557
  3 O s       :     3.796304  s :     3.796304
      pz      :     1.674276  p :     4.894788
      px      :     1.513669
      py      :     1.706843
      dz2     :     0.009688  d :     0.050969
      dxz     :     0.006132
      dyz     :     0.013465
      dx2y2   :     0.014038
      dxy     :     0.007645
      f0      :     0.000486  f :     0.004018
      f+1     :     0.000565
      f-1     :     0.000715
      f+2     :     0.000680
      f-2     :     0.000519
      f+3     :     0.000621
      f-3     :     0.000433
  4 H s       :     0.546436  s :     0.546436
      pz      :     0.012288  p :     0.054434
      px      :     0.030813
      py      :     0.011332
  5 H s       :     0.603221  s :     0.603221
      pz      :     0.018037  p :     0.046792
      px      :     0.011864
      py      :     0.016890
  6 O s       :     3.804343  s :     3.804343
      pz      :     1.760436  p :     4.886063
      px      :     1.714917
      py      :     1.410710
      dz2     :     0.008858  d :     0.051414
      dxz     :     0.012657
      dyz     :     0.008151
      dx2y2   :     0.012386
      dxy     :     0.009363
      f0      :     0.000534  f :     0.004038
      f+1     :     0.000530
      f-1     :     0.000618
      f+2     :     0.000479
      f-2     :     0.000709
      f+3     :     0.000444
      f-3     :     0.000723
  7 H s       :     0.556441  s :     0.556441
      pz      :     0.012528  p :     0.055340
      px      :     0.012029
      py      :     0.030783
  8 H s       :     0.621985  s :     0.621985
      pz      :     0.017442  p :     0.047386
      px      :     0.017089
      py      :     0.012854


                     *******************************
                     * LOEWDIN POPULATION ANALYSIS *
                     *******************************

----------------------
LOEWDIN ATOMIC CHARGES
----------------------
   0 O :   -0.294500
   1 H :    0.167189
   2 H :    0.186988
   3 O :   -0.315687
   4 H :    0.157339
   5 H :    0.159185
   6 O :   -0.362646
   7 H :    0.151943
   8 H :    0.150189

-------------------------------
LOEWDIN REDUCED ORBITAL CHARGES
-------------------------------
  0 O s       :     3.457267  s :     3.457267
      pz      :     1.557719  p :     4.772242
      px      :     1.766897
      py      :     1.447626
      dz2     :     0.017439  d :     0.060087
      dxz     :     0.012708
      dyz     :     0.006012
      dx2y2   :     0.016502
      dxy     :     0.007426
      f0      :     0.000539  f :     0.004904
      f+1     :     0.001161
      f-1     :     0.000815
      f+2     :     0.000479
      f-2     :     0.000480
      f+3     :     0.000570
      f-3     :     0.000860
  1 H s       :     0.668034  s :     0.668034
      pz      :     0.078769  p :     0.164777
      px      :     0.054275
      py      :     0.031734
  2 H s       :     0.656989  s :     0.656989
      pz      :     0.030926  p :     0.156024
      px      :     0.040841
      py      :     0.084256
  3 O s       :     3.452284  s :     3.452284
      pz      :     1.647731  p :     4.799819
      px      :     1.487313
      py      :     1.664775
      dz2     :     0.010541  d :     0.058739
      dxz     :     0.006460
      dyz     :     0.016671
      dx2y2   :     0.017613
      dxy     :     0.007454
      f0      :     0.000500  f :     0.004845
      f+1     :     0.000642
      f-1     :     0.000938
      f+2     :     0.000821
      f-2     :     0.000564
      f+3     :     0.000826
      f-3     :     0.000554
  4 H s       :     0.656440  s :     0.656440
      pz      :     0.036910  p :     0.186221
      px      :     0.112527
      py      :     0.036783
  5 H s       :     0.674930  s :     0.674930
      pz      :     0.067122  p :     0.165885
      px      :     0.033922
      py      :     0.064842
  6 O s       :     3.463669  s :     3.463669
      pz      :     1.735823  p :     4.835749
      px      :     1.703846
      py      :     1.396080
      dz2     :     0.008919  d :     0.058407
      dxz     :     0.014705
      dyz     :     0.009030
      dx2y2   :     0.015121
      dxy     :     0.010633
      f0      :     0.000542  f :     0.004821
      f+1     :     0.000564
      f-1     :     0.000727
      f+2     :     0.000552
      f-2     :     0.000979
      f+3     :     0.000510
      f-3     :     0.000947
  7 H s       :     0.661567  s :     0.661567
      pz      :     0.037599  p :     0.186490
      px      :     0.037243
      py      :     0.111648
  8 H s       :     0.684422  s :     0.684422
      pz      :     0.062301  p :     0.165389
      px      :     0.064719
      py      :     0.038369


                      *****************************
                      * MAYER POPULATION ANALYSIS *
                      *****************************

  NA   - Mulliken gross atomic population
  ZA   - Total nuclear charge
  QA   - Mulliken gross atomic charge
  VA   - Mayer's total valence
  BVA  - Mayer's bonded valence
  FA   - Mayer's free valence

  ATOM       NA         ZA         QA         VA         BVA        FA
  0 O      8.7181     8.0000    -0.7181     2.0702     1.6829     0.3873
  1 H      0.6373     1.0000     0.3627     0.8868     0.8415     0.0453
  2 H      0.6206     1.0000     0.3794     0.8755     0.8298     0.0457
  3 O      8.7461     8.0000    -0.7461     2.0324     1.6423     0.3901
  4 H      0.6009     1.0000     0.3991     0.8748     0.8305     0.0443
  5 H      0.6500     1.0000     0.3500     0.8967     0.8500     0.0467
  6 O      8.7459     8.0000    -0.7459     2.0241     1.6344     0.3897
  7 H      0.6118     1.0000     0.3882     0.8887     0.8435     0.0452
  8 H      0.6694     1.0000     0.3306     0.9099     0.8618     0.0481

  Mayer bond orders larger than 0.100000
B(  0-O ,  1-H ) :   0.8353 B(  0-O ,  2-H ) :   0.8197 B(  3-O ,  4-H ) :   0.7811 
B(  3-O ,  5-H ) :   0.8435 B(  6-O ,  7-H ) :   0.7884 B(  6-O ,  8-H ) :   0.8578 



                *******************************************
                * RELAXED MP2 DENSITY POPULATION ANALYSIS *
                *******************************************

------------------------------------------------------------------------------
                           ORCA POPULATION ANALYSIS
------------------------------------------------------------------------------
Input electron density              ... 4h2o.temelso.etal.dset.3h2o.dset-orca.engrad-mp2.def2tzvp.pmp2re
BaseName (.gbw .S,...)              ... 4h2o.temelso.etal.dset.3h2o.dset-orca.engrad-mp2.def2tzvp

                    ********************************
                    * MULLIKEN POPULATION ANALYSIS *
                    ********************************

-----------------------
MULLIKEN ATOMIC CHARGES
-----------------------
   0 O :   -0.697454
   1 H :    0.356571
   2 H :    0.371970
   3 O :   -0.720962
   4 H :    0.380795
   5 H :    0.344050
   6 O :   -0.727842
   7 H :    0.367935
   8 H :    0.324938
Sum of atomic charges:   -0.0000000

--------------------------------
MULLIKEN REDUCED ORBITAL CHARGES
--------------------------------
  0 O s       :     3.802409  s :     3.802409
      pz      :     1.564537  p :     4.841575
      px      :     1.821308
      py      :     1.455730
      dz2     :     0.013276  d :     0.049488
      dxz     :     0.010474
      dyz     :     0.005845
      dx2y2   :     0.012390
      dxy     :     0.007502
      f0      :     0.000460  f :     0.003983
      f+1     :     0.000816
      f-1     :     0.000609
      f+2     :     0.000487
      f-2     :     0.000451
      f+3     :     0.000487
      f-3     :     0.000673
  1 H s       :     0.596355  s :     0.596355
      pz      :     0.018699  p :     0.047074
      px      :     0.016547
      py      :     0.011828
  2 H s       :     0.583931  s :     0.583931
      pz      :     0.011789  p :     0.044099
      px      :     0.013736
      py      :     0.018575
  3 O s       :     3.796832  s :     3.796832
      pz      :     1.669018  p :     4.871062
      px      :     1.508800
      py      :     1.693244
      dz2     :     0.009406  d :     0.049119
      dxz     :     0.006161
      dyz     :     0.012645
      dx2y2   :     0.013320
      dxy     :     0.007588
      f0      :     0.000484  f :     0.003950
      f+1     :     0.000556
      f-1     :     0.000698
      f+2     :     0.000664
      f-2     :     0.000514
      f+3     :     0.000606
      f-3     :     0.000429
  4 H s       :     0.564515  s :     0.564515
      pz      :     0.012953  p :     0.054690
      px      :     0.029711
      py      :     0.012026
  5 H s       :     0.608407  s :     0.608407
      pz      :     0.018041  p :     0.047543
      px      :     0.012421
      py      :     0.017081
  6 O s       :     3.805146  s :     3.805146
      pz      :     1.755928  p :     4.869296
      px      :     1.708442
      py      :     1.404925
      dz2     :     0.008730  d :     0.049429
      dxz     :     0.012071
      dyz     :     0.007924
      dx2y2   :     0.011698
      dxy     :     0.009007
      f0      :     0.000528  f :     0.003971
      f+1     :     0.000524
      f-1     :     0.000607
      f+2     :     0.000474
      f-2     :     0.000693
      f+3     :     0.000440
      f-3     :     0.000705
  7 H s       :     0.576416  s :     0.576416
      pz      :     0.013306  p :     0.055649
      px      :     0.012791
      py      :     0.029551
  8 H s       :     0.626882  s :     0.626882
      pz      :     0.017830  p :     0.048180
      px      :     0.017230
      py      :     0.013121


                     *******************************
                     * LOEWDIN POPULATION ANALYSIS *
                     *******************************

----------------------
LOEWDIN ATOMIC CHARGES
----------------------
   0 O :   -0.291121
   1 H :    0.169008
   2 H :    0.188058
   3 O :   -0.311682
   4 H :    0.151527
   5 H :    0.161093
   6 O :   -0.364735
   7 H :    0.145694
   8 H :    0.152158

-------------------------------
LOEWDIN REDUCED ORBITAL CHARGES
-------------------------------
  0 O s       :     3.458547  s :     3.458547
      pz      :     1.559371  p :     4.768668
      px      :     1.758558
      py      :     1.450738
      dz2     :     0.016948  d :     0.058984
      dxz     :     0.012528
      dyz     :     0.005927
      dx2y2   :     0.016167
      dxy     :     0.007413
      f0      :     0.000538  f :     0.004922
      f+1     :     0.001166
      f-1     :     0.000818
      f+2     :     0.000481
      f-2     :     0.000481
      f+3     :     0.000573
      f-3     :     0.000865
  1 H s       :     0.666357  s :     0.666357
      pz      :     0.078079  p :     0.164635
      px      :     0.054821
      py      :     0.031735
  2 H s       :     0.656116  s :     0.656116
      pz      :     0.031271  p :     0.155826
      px      :     0.041632
      py      :     0.082923
  3 O s       :     3.453366  s :     3.453366
      pz      :     1.647831  p :     4.795396
      px      :     1.489699
      py      :     1.657866
      dz2     :     0.010473  d :     0.058045
      dxz     :     0.006414
      dyz     :     0.016295
      dx2y2   :     0.017421
      dxy     :     0.007442
      f0      :     0.000503  f :     0.004875
      f+1     :     0.000647
      f-1     :     0.000940
      f+2     :     0.000826
      f-2     :     0.000567
      f+3     :     0.000836
      f-3     :     0.000555
  4 H s       :     0.661990  s :     0.661990
      pz      :     0.037549  p :     0.186483
      px      :     0.111539
      py      :     0.037396
  5 H s       :     0.672950  s :     0.672950
      pz      :     0.066894  p :     0.165957
      px      :     0.034141
      py      :     0.064921
  6 O s       :     3.465166  s :     3.465166
      pz      :     1.734733  p :     4.837265
      px      :     1.702922
      py      :     1.399611
      dz2     :     0.008893  d :     0.057453
      dxz     :     0.014445
      dyz     :     0.008869
      dx2y2   :     0.014834
      dxy     :     0.010411
      f0      :     0.000546  f :     0.004850
      f+1     :     0.000563
      f-1     :     0.000737
      f+2     :     0.000549
      f-2     :     0.000983
      f+3     :     0.000510
      f-3     :     0.000962
  7 H s       :     0.667522  s :     0.667522
      pz      :     0.038379  p :     0.186784
      px      :     0.037967
      py      :     0.110438
  8 H s       :     0.682168  s :     0.682168
      pz      :     0.062600  p :     0.165674
      px      :     0.064870
      py      :     0.038204


                      *****************************
                      * MAYER POPULATION ANALYSIS *
                      *****************************

  NA   - Mulliken gross atomic population
  ZA   - Total nuclear charge
  QA   - Mulliken gross atomic charge
  VA   - Mayer's total valence
  BVA  - Mayer's bonded valence
  FA   - Mayer's free valence

  ATOM       NA         ZA         QA         VA         BVA        FA
  0 O      8.6975     8.0000    -0.6975     2.0947     1.7129     0.3818
  1 H      0.6434     1.0000     0.3566     0.8912     0.8459     0.0453
  2 H      0.6280     1.0000     0.3720     0.8827     0.8371     0.0456
  3 O      8.7210     8.0000    -0.7210     2.0608     1.6762     0.3846
  4 H      0.6192     1.0000     0.3808     0.8980     0.8542     0.0438
  5 H      0.6560     1.0000     0.3440     0.9006     0.8538     0.0468
  6 O      8.7278     8.0000    -0.7278     2.0323     1.6474     0.3849
  7 H      0.6321     1.0000     0.3679     0.9153     0.8707     0.0446
  8 H      0.6751     1.0000     0.3249     0.9132     0.8650     0.0482

  Mayer bond orders larger than 0.100000
B(  0-O ,  1-H ) :   0.8388 B(  0-O ,  2-H ) :   0.8235 B(  3-O ,  4-H ) :   0.7835 
B(  3-O ,  5-H ) :   0.8463 B(  6-O ,  7-H ) :   0.7921 B(  6-O ,  8-H ) :   0.8610 



----------------------------------
MP2 DERIVATIVE INTEGRAL GENERATION
----------------------------------


Input Wavefunction Amplitudes       ... 4h2o.temelso.etal.dset.3h2o.dset-orca.engrad-mp2.def2tzvp.mp2tsaa.tmp
Input Correlated Electron Density   ... 4h2o.temelso.etal.dset.3h2o.dset-orca.engrad-mp2.def2tzvp.pmp2re
Input Energy Weighted Density       ... 4h2o.temelso.etal.dset.3h2o.dset-orca.engrad-mp2.def2tzvp.wmp2.tmp
Input SCF Electron Density          ... 4h2o.temelso.etal.dset.3h2o.dset-orca.engrad-mp2.def2tzvp.scfp

One-Electron Terms    ...
                        ... One-Electron Terms done
Prescreening matrices              ... done

Batch handling in the gradient evaluation:
Memory available                      ... 8000.0 MB
Memory per occupied orbital in Q2     ...    1.5 MB
Memory per occupied orbital in Q3     ...    0.0 MB
Total memory requirement per |i>      ...    1.6 MB
Max. Number of orbitals possible      ...   5089
Number of orbitals treated per batch  ...     12
Number of batches to be done          ...      1
Batch   0: i=    3 ...    14

---------------------------------------
MP2 TOTAL ENERGY:     -228.960538534 Eh
---------------------------------------

The final MP2 gradient
  0:   0.00468625  -0.01850848  -0.00035394
  1:  -0.00027455  -0.00020398  -0.00097548
  2:  -0.00312719   0.01724167   0.00165004
  3:   0.00571802   0.00569886  -0.00048895
  4:  -0.00782638  -0.00042239  -0.00170797
  5:  -0.00014309  -0.00187737   0.00178719
  6:  -0.00199710   0.00517527   0.00283737
  7:   0.00049343  -0.00914744  -0.00029190
  8:   0.00247062   0.00204385  -0.00245637

-----------------------------------
NORM OF THE MP2 GRADIENT:  0.030840
-----------------------------------

-------------------------   --------------------
FINAL SINGLE POINT ENERGY      -228.960538533793
-------------------------   --------------------


                            ***************************************
                            *     ORCA property calculations      *
                            ***************************************

                                    ---------------------
                                    Active property flags
                                    ---------------------
   (+) Dipole Moment


------------------------------------------------------------------------------
                       ORCA ELECTRIC PROPERTIES CALCULATION
------------------------------------------------------------------------------

Dipole Moment Calculation                       ... on
Quadrupole Moment Calculation                   ... off
Polarizability Calculation                      ... off
GBWName                                         ... 4h2o.temelso.etal.dset.3h2o.dset-orca.engrad-mp2.def2tzvp.gbw
Electron density file                           ... 4h2o.temelso.etal.dset.3h2o.dset-orca.engrad-mp2.def2tzvp.scfp
The origin for moment calculation is the CENTER OF MASS  = (-0.000003, -0.000003 -0.000004)

-------------
DIPOLE MOMENT
-------------
                                X             Y             Z
Electronic contribution:     -0.20629      -0.18739       0.02844
Nuclear contribution   :     -0.43865      -0.48535      -0.74438
                        -----------------------------------------
Total Dipole Moment    :     -0.64494      -0.67274      -0.71594
                        -----------------------------------------
Magnitude (a.u.)       :      1.17520
Magnitude (Debye)      :      2.98713



--------------------
Rotational spectrum 
--------------------
 
Rotational constants in cm-1:     0.345003     0.120602     0.090835 
Rotational constants in MHz : 10342.939887  3615.553175  2723.168320 

 Dipole components along the rotational axes: 
x,y,z [a.u.] :    -1.057661     0.007534    -0.512245 
x,y,z [Debye]:    -2.688361     0.019150    -1.302024 

 

                         *** MP2 UNRELAXED DENSITY ***

------------------------------------------------------------------------------
                       ORCA ELECTRIC PROPERTIES CALCULATION
------------------------------------------------------------------------------

Dipole Moment Calculation                       ... on
Quadrupole Moment Calculation                   ... off
Polarizability Calculation                      ... off
GBWName                                         ... 4h2o.temelso.etal.dset.3h2o.dset-orca.engrad-mp2.def2tzvp.gbw
Electron density file                           ... 4h2o.temelso.etal.dset.3h2o.dset-orca.engrad-mp2.def2tzvp.pmp2ur
The origin for moment calculation is the CENTER OF MASS  = (-0.000003, -0.000003 -0.000004)

-------------
DIPOLE MOMENT
-------------
                                X             Y             Z
Electronic contribution:     -0.20435      -0.18533       0.03489
Nuclear contribution   :     -0.43865      -0.48535      -0.74438
                        -----------------------------------------
Total Dipole Moment    :     -0.64301      -0.67068      -0.70949
                        -----------------------------------------
Magnitude (a.u.)       :      1.16904
Magnitude (Debye)      :      2.97146



--------------------
Rotational spectrum 
--------------------
 
Rotational constants in cm-1:     0.345003     0.120602     0.090835 
Rotational constants in MHz : 10342.939887  3615.553175  2723.168320 

 Dipole components along the rotational axes: 
x,y,z [a.u.] :    -1.053591     0.007595    -0.506496 
x,y,z [Debye]:    -2.678015     0.019305    -1.287411 

 

                           *** MP2 RELAXED DENSITY ***

------------------------------------------------------------------------------
                       ORCA ELECTRIC PROPERTIES CALCULATION
------------------------------------------------------------------------------

Dipole Moment Calculation                       ... on
Quadrupole Moment Calculation                   ... off
Polarizability Calculation                      ... off
GBWName                                         ... 4h2o.temelso.etal.dset.3h2o.dset-orca.engrad-mp2.def2tzvp.gbw
Electron density file                           ... 4h2o.temelso.etal.dset.3h2o.dset-orca.engrad-mp2.def2tzvp.pmp2re
The origin for moment calculation is the CENTER OF MASS  = (-0.000003, -0.000003 -0.000004)

-------------
DIPOLE MOMENT
-------------
                                X             Y             Z
Electronic contribution:     -0.20855      -0.18944       0.03941
Nuclear contribution   :     -0.43865      -0.48535      -0.74438
                        -----------------------------------------
Total Dipole Moment    :     -0.64721      -0.67479      -0.70497
                        -----------------------------------------
Magnitude (a.u.)       :      1.17098
Magnitude (Debye)      :      2.97641



--------------------
Rotational spectrum 
--------------------
 
Rotational constants in cm-1:     0.345003     0.120602     0.090835 
Rotational constants in MHz : 10342.939887  3615.553175  2723.168320 

 Dipole components along the rotational axes: 
x,y,z [a.u.] :    -1.058425     0.007682    -0.500882 
x,y,z [Debye]:    -2.690303     0.019525    -1.273141 

 

Timings for individual modules:

Sum of individual times         ...        8.870 sec (=   0.148 min)
GTO integral calculation        ...        0.967 sec (=   0.016 min)  10.9 %
SCF iterations                  ...        2.624 sec (=   0.044 min)  29.6 %
MP2 module                      ...        5.280 sec (=   0.088 min)  59.5 %


                 $$$$$$$$$$$$$$$$  JOB NUMBER  2 $$$$$$$$$$$$$$


                     *******************************
                     * Energy+Gradient Calculation *
                     *******************************

---------------------------------
CARTESIAN COORDINATES (ANGSTROEM)
---------------------------------
  O     -0.868944   -0.933924   -0.227917
  H     -1.287144   -1.148524   -1.070717
  H     -1.032144    0.029576   -0.104417
  O      1.856456   -0.895524    0.127483
  H      0.898856   -1.034324   -0.057217
  H      2.068356   -1.532624    0.820683
  O     -0.942744    1.798376    0.062183
  H      0.019656    1.941376    0.215883
  H     -1.378244    2.237776    0.802983

----------------------------
CARTESIAN COORDINATES (A.U.)
----------------------------
  NO LB      ZA    FRAG     MASS         X           Y           Z
   0 O     8.0000    0    15.999   -1.642066   -1.764861   -0.430700
   1 H     1.0000    0     1.008   -2.432350   -2.170396   -2.023361
   2 H     1.0000    0     1.008   -1.950470    0.055890   -0.197319
   3 O     8.0000    0    15.999    3.508193   -1.692295    0.240909
   4 H     1.0000    0     1.008    1.698591   -1.954589   -0.108124
   5 H     1.0000    0     1.008    3.908626   -2.896240    1.550867
   6 O     8.0000    0    15.999   -1.781528    3.398438    0.117510
   7 H     1.0000    0     1.008    0.037144    3.668669    0.407960
   8 H     1.0000    0     1.008   -2.604504    4.228784    1.517419

--------------------------------
INTERNAL COORDINATES (ANGSTROEM)
--------------------------------
 O      0   0   0     0.000000000000     0.00000000     0.00000000
 H      1   0   0     0.965016186393     0.00000000     0.00000000
 H      1   2   0     0.984996822330   104.78701950     0.00000000
 O      1   2   3     2.748743145512   123.07303403   250.25798596
 H      4   1   2     0.985077301535     8.08435971   310.20628916
 H      4   1   2     0.965051428681   107.53929957   239.02515673
 O      3   1   2     1.778876431909   167.43520570   248.94166705
 H      7   3   1     0.985031192400   102.00903850   342.91587198
 H      7   3   1     0.965151412992   120.12538413   227.77436953

---------------------------
INTERNAL COORDINATES (A.U.)
---------------------------
 O      0   0   0     0.000000000000     0.00000000     0.00000000
 H      1   0   0     1.823616307083     0.00000000     0.00000000
[...]
                     * LOEWDIN POPULATION ANALYSIS *
                     *******************************

----------------------
LOEWDIN ATOMIC CHARGES
----------------------
   0 O :   -0.308635
   1 H :    0.159823
   2 H :    0.161626
   3 O :   -0.356881
   4 H :    0.154267
   5 H :    0.154772
   6 O :   -0.302582
   7 H :    0.168657
   8 H :    0.168953

-------------------------------
LOEWDIN REDUCED ORBITAL CHARGES
-------------------------------
  0 O s       :     3.455434  s :     3.455434
      pz      :     1.406822  p :     4.788614
      px      :     1.808869
      py      :     1.572922
      dz2     :     0.018484  d :     0.059737
      dxz     :     0.012184
      dyz     :     0.008367
      dx2y2   :     0.009710
      dxy     :     0.010992
      f0      :     0.001112  f :     0.004851
      f+1     :     0.000984
      f-1     :     0.000422
      f+2     :     0.000560
      f-2     :     0.000569
      f+3     :     0.000766
      f-3     :     0.000438
  1 H s       :     0.675018  s :     0.675018
      pz      :     0.081085  p :     0.165159
      px      :     0.049523
      py      :     0.034551
  2 H s       :     0.661235  s :     0.661235
      pz      :     0.039045  p :     0.177139
      px      :     0.051195
      py      :     0.086900
  3 O s       :     3.459448  s :     3.459448
      pz      :     1.655367  p :     4.834637
      px      :     1.676613
      py      :     1.502658
      dz2     :     0.007594  d :     0.057987
      dxz     :     0.015185
      dyz     :     0.009687
      dx2y2   :     0.018414
      dxy     :     0.007108
      f0      :     0.000753  f :     0.004809
      f+1     :     0.000620
      f-1     :     0.000427
      f+2     :     0.001151
      f-2     :     0.000467
      f+3     :     0.000579
      f-3     :     0.000811
  4 H s       :     0.660417  s :     0.660417
      pz      :     0.071422  p :     0.185315
      px      :     0.079977
      py      :     0.033917
  5 H s       :     0.679488  s :     0.679488
      pz      :     0.045230  p :     0.165740
      px      :     0.039293
      py      :     0.081216
  6 O s       :     3.462449  s :     3.462449
      pz      :     1.534801  p :     4.774525
      px      :     1.548270
      py      :     1.691454
      dz2     :     0.006845  d :     0.060697
      dxz     :     0.012814
      dyz     :     0.017411
      dx2y2   :     0.016350
      dxy     :     0.007276
      f0      :     0.000669  f :     0.004911
      f+1     :     0.000376
      f-1     :     0.000882
      f+2     :     0.001305
      f-2     :     0.000443
      f+3     :     0.000684
      f-3     :     0.000552
  7 H s       :     0.666935  s :     0.666935
      pz      :     0.063380  p :     0.164408
      px      :     0.032571
      py      :     0.068456
  8 H s       :     0.670943  s :     0.670943
      pz      :     0.043936  p :     0.160105
      px      :     0.077530
      py      :     0.038639


                      *****************************
                      * MAYER POPULATION ANALYSIS *
                      *****************************

  NA   - Mulliken gross atomic population
  ZA   - Total nuclear charge
  QA   - Mulliken gross atomic charge
  VA   - Mayer's total valence
  BVA  - Mayer's bonded valence
  FA   - Mayer's free valence

  ATOM       NA         ZA         QA         VA         BVA        FA
  0 O      8.7317     8.0000    -0.7317     2.0467     1.6572     0.3895
  1 H      0.6511     1.0000     0.3489     0.8976     0.8507     0.0469
  2 H      0.6100     1.0000     0.3900     0.8829     0.8378     0.0451
  3 O      8.7525     8.0000    -0.7525     2.0269     1.6356     0.3913
  4 H      0.6143     1.0000     0.3857     0.8879     0.8422     0.0457
  5 H      0.6596     1.0000     0.3404     0.9058     0.8586     0.0472
  6 O      8.7169     8.0000    -0.7169     2.0830     1.6953     0.3877
  7 H      0.6187     1.0000     0.3813     0.8817     0.8371     0.0446
  8 H      0.6453     1.0000     0.3547     0.8933     0.8461     0.0472

  Mayer bond orders larger than 0.100000
B(  0-O ,  1-H ) :   0.8433 B(  0-O ,  2-H ) :   0.7887 B(  3-O ,  4-H ) :   0.7846 
B(  3-O ,  5-H ) :   0.8507 B(  6-O ,  7-H ) :   0.8165 B(  6-O ,  8-H ) :   0.8390 



                *******************************************
                * RELAXED MP2 DENSITY POPULATION ANALYSIS *
                *******************************************

------------------------------------------------------------------------------
                           ORCA POPULATION ANALYSIS
------------------------------------------------------------------------------
Input electron density              ... 4h2o.temelso.etal.dset.3h2o.dset-orca.engrad-mp2.def2tzvp_job12.pmp2re
BaseName (.gbw .S,...)              ... 4h2o.temelso.etal.dset.3h2o.dset-orca.engrad-mp2.def2tzvp_job12

                    ********************************
                    * MULLIKEN POPULATION ANALYSIS *
                    ********************************

-----------------------
MULLIKEN ATOMIC CHARGES
-----------------------
   0 O :   -0.706762
   1 H :    0.343022
   2 H :    0.371741
   3 O :   -0.732230
   4 H :    0.365336
   5 H :    0.332614
   6 O :   -0.692200
   7 H :    0.370347
   8 H :    0.348132
Sum of atomic charges:    0.0000000

--------------------------------
MULLIKEN REDUCED ORBITAL CHARGES
--------------------------------
  0 O s       :     3.798529  s :     3.798529
      pz      :     1.407137  p :     4.854393
      px      :     1.867577
      py      :     1.579679
      dz2     :     0.012525  d :     0.049909
      dxz     :     0.010545
      dyz     :     0.006903
      dx2y2   :     0.009303
      dxy     :     0.010632
      f0      :     0.000786  f :     0.003931
      f+1     :     0.000690
      f-1     :     0.000392
      f+2     :     0.000512
      f-2     :     0.000465
      f+3     :     0.000637
      f-3     :     0.000449
  1 H s       :     0.609551  s :     0.609551
      pz      :     0.018077  p :     0.047427
      px      :     0.016310
      py      :     0.013040
  2 H s       :     0.577224  s :     0.577224
      pz      :     0.013575  p :     0.051035
      px      :     0.016326
      py      :     0.021134
  3 O s       :     3.806350  s :     3.806350
      pz      :     1.685323  p :     4.873438
      px      :     1.691274
      py      :     1.496841
      dz2     :     0.007357  d :     0.048469
      dxz     :     0.012161
      dyz     :     0.007456
      dx2y2   :     0.013698
      dxy     :     0.007797
      f0      :     0.000614  f :     0.003972
      f+1     :     0.000557
      f-1     :     0.000456
      f+2     :     0.000892
      f-2     :     0.000467
      f+3     :     0.000424
      f-3     :     0.000561
  4 H s       :     0.580414  s :     0.580414
      pz      :     0.020907  p :     0.054250
      px      :     0.021082
      py      :     0.012261
  5 H s       :     0.619115  s :     0.619115
      pz      :     0.015916  p :     0.048271
      px      :     0.013987
      py      :     0.018368
  6 O s       :     3.810310  s :     3.810310
      pz      :     1.558646  p :     4.826795
      px      :     1.541040
      py      :     1.727109
      dz2     :     0.006720  d :     0.051170
      dxz     :     0.009286
      dyz     :     0.013298
      dx2y2   :     0.013353
      dxy     :     0.008512
      f0      :     0.000528  f :     0.003926
      f+1     :     0.000394
      f-1     :     0.000697
      f+2     :     0.000956
      f-2     :     0.000412
      f+3     :     0.000503
      f-3     :     0.000434
  7 H s       :     0.583531  s :     0.583531
      pz      :     0.016152  p :     0.046122
      px      :     0.011865
      py      :     0.018105
  8 H s       :     0.605861  s :     0.605861
      pz      :     0.014251  p :     0.046007
      px      :     0.018027
      py      :     0.013729


                     *******************************
                     * LOEWDIN POPULATION ANALYSIS *
                     *******************************

----------------------
LOEWDIN ATOMIC CHARGES
----------------------
   0 O :   -0.304429
   1 H :    0.161658
   2 H :    0.155739
   3 O :   -0.358274
   4 H :    0.147770
   5 H :    0.156393
   6 O :   -0.296997
   7 H :    0.167603
   8 H :    0.170539

-------------------------------
LOEWDIN REDUCED ORBITAL CHARGES
-------------------------------
  0 O s       :     3.456841  s :     3.456841
      pz      :     1.408451  p :     4.783837
      px      :     1.804989
      py      :     1.570397
      dz2     :     0.017859  d :     0.058878
      dxz     :     0.012033
      dyz     :     0.008303
      dx2y2   :     0.009652
      dxy     :     0.011031
      f0      :     0.001122  f :     0.004874
      f+1     :     0.000983
      f-1     :     0.000421
      f+2     :     0.000565
      f-2     :     0.000573
      f+3     :     0.000771
      f-3     :     0.000440
  1 H s       :     0.673084  s :     0.673084
      pz      :     0.080006  p :     0.165258
      px      :     0.050321
      py      :     0.034930
  2 H s       :     0.666241  s :     0.666241
      pz      :     0.039212  p :     0.178020
      px      :     0.052136
      py      :     0.086672
  3 O s       :     3.461342  s :     3.461342
      pz      :     1.655254  p :     4.834996
      px      :     1.676265
      py      :     1.503478
      dz2     :     0.007553  d :     0.057093
      dxz     :     0.015002
      dyz     :     0.009502
      dx2y2   :     0.017906
      dxy     :     0.007130
      f0      :     0.000758  f :     0.004843
      f+1     :     0.000626
      f-1     :     0.000428
      f+2     :     0.001168
      f-2     :     0.000470
      f+3     :     0.000576
      f-3     :     0.000816
  4 H s       :     0.666292  s :     0.666292
      pz      :     0.071684  p :     0.185938
      px      :     0.079916
      py      :     0.034337
  5 H s       :     0.677763  s :     0.677763
      pz      :     0.045500  p :     0.165845
      px      :     0.039996
      py      :     0.080349
  6 O s       :     3.463862  s :     3.463862
      pz      :     1.533548  p :     4.768685
      px      :     1.546268
      py      :     1.688870
      dz2     :     0.006805  d :     0.059528
      dxz     :     0.012441
      dyz     :     0.016968
      dx2y2   :     0.015910
      dxy     :     0.007403
      f0      :     0.000669  f :     0.004922
      f+1     :     0.000377
      f-1     :     0.000886
      f+2     :     0.001316
      f-2     :     0.000441
      f+3     :     0.000684
      f-3     :     0.000550
  7 H s       :     0.668014  s :     0.668014
      pz      :     0.062939  p :     0.164383
      px      :     0.032863
      py      :     0.068581
  8 H s       :     0.669303  s :     0.669303
      pz      :     0.043794  p :     0.160158
      px      :     0.076938
      py      :     0.039426


                      *****************************
                      * MAYER POPULATION ANALYSIS *
                      *****************************

  NA   - Mulliken gross atomic population
  ZA   - Total nuclear charge
  QA   - Mulliken gross atomic charge
  VA   - Mayer's total valence
  BVA  - Mayer's bonded valence
  FA   - Mayer's free valence

  ATOM       NA         ZA         QA         VA         BVA        FA
  0 O      8.7068     8.0000    -0.7068     2.0730     1.6892     0.3837
  1 H      0.6570     1.0000     0.3430     0.9019     0.8549     0.0470
  2 H      0.6283     1.0000     0.3717     0.9062     0.8619     0.0443
  3 O      8.7322     8.0000    -0.7322     2.0410     1.6549     0.3861
  4 H      0.6347     1.0000     0.3653     0.9120     0.8670     0.0450
  5 H      0.6674     1.0000     0.3326     0.9113     0.8641     0.0473
  6 O      8.6922     8.0000    -0.6922     2.1150     1.7334     0.3816
  7 H      0.6297     1.0000     0.3703     0.8955     0.8511     0.0444
  8 H      0.6519     1.0000     0.3481     0.8993     0.8520     0.0473

  Mayer bond orders larger than 0.100000
B(  0-O ,  1-H ) :   0.8461 B(  0-O ,  2-H ) :   0.7897 B(  3-O ,  4-H ) :   0.7853 
B(  3-O ,  5-H ) :   0.8543 B(  6-O ,  7-H ) :   0.8208 B(  6-O ,  8-H ) :   0.8425 



----------------------------------
MP2 DERIVATIVE INTEGRAL GENERATION
----------------------------------


Input Wavefunction Amplitudes       ... 4h2o.temelso.etal.dset.3h2o.dset-orca.engrad-mp2.def2tzvp_job12.mp2tsaa.tmp
Input Correlated Electron Density   ... 4h2o.temelso.etal.dset.3h2o.dset-orca.engrad-mp2.def2tzvp_job12.pmp2re
Input Energy Weighted Density       ... 4h2o.temelso.etal.dset.3h2o.dset-orca.engrad-mp2.def2tzvp_job12.wmp2.tmp
Input SCF Electron Density          ... 4h2o.temelso.etal.dset.3h2o.dset-orca.engrad-mp2.def2tzvp_job12.scfp

One-Electron Terms    ...
                        ... One-Electron Terms done
Prescreening matrices              ... done

Batch handling in the gradient evaluation:
Memory available                      ... 8000.0 MB
Memory per occupied orbital in Q2     ...    1.5 MB
Memory per occupied orbital in Q3     ...    0.0 MB
Total memory requirement per |i>      ...    1.6 MB
Max. Number of orbitals possible      ...   5089
Number of orbitals treated per batch  ...     12
Number of batches to be done          ...      1
Batch   0: i=    3 ...    14

---------------------------------------
MP2 TOTAL ENERGY:     -228.962980177 Eh
---------------------------------------

The final MP2 gradient
  0:  -0.00401949   0.00565545  -0.00347801
  1:   0.00257225  -0.00072619   0.00225964
  2:   0.00430742  -0.00340521   0.00019331
  3:   0.00543164   0.00040101  -0.00176010
  4:  -0.00621883  -0.00268746   0.00431878
  5:  -0.00011679   0.00298916  -0.00092761
  6:  -0.00913484  -0.00471777  -0.00605706
  7:   0.00008599  -0.00060436  -0.00041637
  8:   0.00709264   0.00309537   0.00586741

-----------------------------------
NORM OF THE MP2 GRADIENT:  0.021143
-----------------------------------

-------------------------   --------------------
FINAL SINGLE POINT ENERGY      -228.962980176844
-------------------------   --------------------


                            ***************************************
                            *     ORCA property calculations      *
                            ***************************************

                                    ---------------------
                                    Active property flags
                                    ---------------------
   (+) Dipole Moment


------------------------------------------------------------------------------
                       ORCA ELECTRIC PROPERTIES CALCULATION
------------------------------------------------------------------------------

Dipole Moment Calculation                       ... on
Quadrupole Moment Calculation                   ... off
Polarizability Calculation                      ... off
GBWName                                         ... 4h2o.temelso.etal.dset.3h2o.dset-orca.engrad-mp2.def2tzvp_job12.gbw
Electron density file                           ... 4h2o.temelso.etal.dset.3h2o.dset-orca.engrad-mp2.def2tzvp_job12.scfp
The origin for moment calculation is the CENTER OF MASS  = ( 0.000003,  0.000004  0.000003)

-------------
DIPOLE MOMENT
-------------
                                X             Y             Z
Electronic contribution:     -0.13725      -0.23414      -0.04681
Nuclear contribution   :      0.56401       0.60929       0.51065
                        -----------------------------------------
Total Dipole Moment    :      0.42675       0.37515       0.46385
                        -----------------------------------------
Magnitude (a.u.)       :      0.73349
Magnitude (Debye)      :      1.86439



--------------------
Rotational spectrum 
--------------------
 
Rotational constants in cm-1:     0.248315     0.194427     0.111758 
Rotational constants in MHz :  7444.287429  5828.772463  3350.411067 

 Dipole components along the rotational axes: 
x,y,z [a.u.] :     0.392895     0.056012     0.616852 
x,y,z [Debye]:     0.998660     0.142372     1.567914 

 

                         *** MP2 UNRELAXED DENSITY ***

------------------------------------------------------------------------------
                       ORCA ELECTRIC PROPERTIES CALCULATION
------------------------------------------------------------------------------

Dipole Moment Calculation                       ... on
Quadrupole Moment Calculation                   ... off
Polarizability Calculation                      ... off
GBWName                                         ... 4h2o.temelso.etal.dset.3h2o.dset-orca.engrad-mp2.def2tzvp_job12.gbw
Electron density file                           ... 4h2o.temelso.etal.dset.3h2o.dset-orca.engrad-mp2.def2tzvp_job12.pmp2ur
The origin for moment calculation is the CENTER OF MASS  = ( 0.000003,  0.000004  0.000003)

-------------
DIPOLE MOMENT
-------------
                                X             Y             Z
Electronic contribution:     -0.14340      -0.24230      -0.05194
Nuclear contribution   :      0.56401       0.60929       0.51065
                        -----------------------------------------
Total Dipole Moment    :      0.42060       0.36699       0.45871
                        -----------------------------------------
Magnitude (a.u.)       :      0.72250
Magnitude (Debye)      :      1.83644



--------------------
Rotational spectrum 
--------------------
 
Rotational constants in cm-1:     0.248315     0.194427     0.111758 
Rotational constants in MHz :  7444.287429  5828.772463  3350.411067 

 Dipole components along the rotational axes: 
x,y,z [a.u.] :     0.384498     0.056311     0.609093 
x,y,z [Debye]:     0.977317     0.143131     1.548191 

 

                           *** MP2 RELAXED DENSITY ***

------------------------------------------------------------------------------
                       ORCA ELECTRIC PROPERTIES CALCULATION
------------------------------------------------------------------------------

Dipole Moment Calculation                       ... on
Quadrupole Moment Calculation                   ... off
Polarizability Calculation                      ... off
GBWName                                         ... 4h2o.temelso.etal.dset.3h2o.dset-orca.engrad-mp2.def2tzvp_job12.gbw
Electron density file                           ... 4h2o.temelso.etal.dset.3h2o.dset-orca.engrad-mp2.def2tzvp_job12.pmp2re
The origin for moment calculation is the CENTER OF MASS  = ( 0.000003,  0.000004  0.000003)

-------------
DIPOLE MOMENT
-------------
                                X             Y             Z
Electronic contribution:     -0.14590      -0.26022      -0.05444
Nuclear contribution   :      0.56401       0.60929       0.51065
                        -----------------------------------------
Total Dipole Moment    :      0.41811       0.34907       0.45621
                        -----------------------------------------
Magnitude (a.u.)       :      0.71049
Magnitude (Debye)      :      1.80592



--------------------
Rotational spectrum 
--------------------
 
Rotational constants in cm-1:     0.248315     0.194427     0.111758 
Rotational constants in MHz :  7444.287429  5828.772463  3350.411067 

 Dipole components along the rotational axes: 
x,y,z [a.u.] :     0.366484     0.055967     0.606095 
x,y,z [Debye]:     0.931529     0.142256     1.540571 

 

Timings for individual modules:

Sum of individual times         ...        8.205 sec (=   0.137 min)
GTO integral calculation        ...        0.819 sec (=   0.014 min)  10.0 %
SCF iterations                  ...        3.225 sec (=   0.054 min)  39.3 %
MP2 module                      ...        4.162 sec (=   0.069 min)  50.7 %



                             ****ORCA TERMINATED NORMALLY****
TOTAL RUN TIME: 0 days 0 hours 1 minutes 46 seconds 533 msec
