
                                 *****************
                                 * O   R   C   A *
                                 *****************

           --- An Ab Initio, DFT and Semiempirical electronic structure package ---

                  #######################################################
                  #                        -***-                        #
                  #          Department of theory and spectroscopy      #
                  #               Directorship: Frank Neese             #
                  #        Max Planck Institute fuer Kohlenforschung    #
                  #                Kaiser Wilhelm Platz 1               #
                  #                 D-45470 Muelheim/Ruhr               #
                  #                      Germany                        #
                  #                                                     #
                  #                  All rights reserved                #
                  #                        -***-                        #
                  #######################################################


                         Program Version 4.2.0 -  RELEASE  -


 With contributions from (in alphabetic order):
   Daniel Aravena         : Magnetic Suceptibility
   Michael Atanasov       : Ab Initio Ligand Field Theory (pilot matlab implementation)
   Alexander A. Auer      : GIAO ZORA, VPT2
   Ute Becker             : Parallelization
   Giovanni Bistoni       : ED, misc. LED, open-shell LED, HFLED
   Martin Brehm           : Molecular dynamics
   Dmytro Bykov           : SCF Hessian
   Vijay G. Chilkuri      : MRCI spin determinant printing, contributions to CSF-ICE
   Dipayan Datta          : RHF DLPNO-CCSD density
   Achintya Kumar Dutta   : EOM-CC, STEOM-CC
   Dmitry Ganyushin       : Spin-Orbit,Spin-Spin,Magnetic field MRCI
   Miquel Garcia          : C-PCM Hessian, Gaussian charge scheme
   Yang Guo               : DLPNO-NEVPT2, CIM, IAO-localization
   Andreas Hansen         : Spin unrestricted coupled pair/coupled cluster methods
   Benjamin Helmich-Paris : CASSCF linear response (MC-RPA)
   Lee Huntington         : MR-EOM, pCC
   Robert Izsak           : Overlap fitted RIJCOSX, COSX-SCS-MP3, EOM
   Christian Kollmar      : KDIIS, OOCD, Brueckner-CCSD(T), CCSD density
   Simone Kossmann        : Meta GGA functionals, TD-DFT gradient, OOMP2, MP2 Hessian
   Martin Krupicka        : AUTO-CI
   Lucas Lang             : DCDCAS
   Dagmar Lenk            : GEPOL surface, SMD
   Dimitrios Liakos       : Extrapolation schemes; Compound Job, initial MDCI parallelization
   Dimitrios Manganas     : Further ROCIS development; embedding schemes
   Dimitrios Pantazis     : SARC Basis sets
   Taras Petrenko         : DFT Hessian,TD-DFT gradient, ASA, ECA, R-Raman, ABS, FL, XAS/XES, NRVS
   Peter Pinski           : DLPNO-MP2, DLPNO-MP2 Gradient
   Christoph Reimann      : Effective Core Potentials
   Marius Retegan         : Local ZFS, SOC
   Christoph Riplinger    : Optimizer, TS searches, QM/MM, DLPNO-CCSD(T), (RO)-DLPNO pert. Triples
   Tobias Risthaus        : Range-separated hybrids, TD-DFT gradient, RPA, STAB
   Michael Roemelt        : Original ROCIS implementation
   Masaaki Saitow         : Open-shell DLPNO-CCSD energy and density
   Barbara Sandhoefer     : DKH picture change effects
   Avijit Sen             : IP-ROCIS
   Kantharuban Sivalingam : CASSCF convergence, NEVPT2, FIC-MRCI
   Bernardo de Souza      : ESD, SOC TD-DFT
   Georgi Stoychev        : AutoAux, RI-MP2 NMR
   Willem Van den Heuvel  : Paramagnetic NMR
   Boris Wezisla          : Elementary symmetry handling
   Frank Wennmohs         : Technical directorship


 We gratefully acknowledge several colleagues who have allowed us to
 interface, adapt or use parts of their codes:
   Stefan Grimme, W. Hujo, H. Kruse,             : VdW corrections, initial TS optimization,
                  C. Bannwarth                     DFT functionals, gCP, sTDA/sTD-DF
   Ed Valeev, F. Pavosevic, A. Kumar             : LibInt (2-el integral package), F12 methods
   Garnet Chan, S. Sharma, J. Yang, R. Olivares  : DMRG
   Ulf Ekstrom                                   : XCFun DFT Library
   Mihaly Kallay                                 : mrcc  (arbitrary order and MRCC methods)
   Andreas Klamt, Michael Diedenhofen            : otool_cosmo (COSMO solvation model)
   Jiri Pittner, Ondrej Demel                    : Mk-CCSD
   Frank Weinhold                                : gennbo (NPA and NBO analysis)
   Christopher J. Cramer and Donald G. Truhlar   : smd solvation model
   Lars Goerigk                                  : TD-DFT with DH, B97 family of functionals
   V. Asgeirsson, H. Jonsson                     : NEB implementation
   FAccTs GmbH                                   : IRC, NEB, NEB-TS, Multilevel, MM, QM/MM, CI optimization
   S Lehtola, MJT Oliveira, MAL Marques          : LibXC Library


 Your calculation uses the libint2 library for the computation of 2-el integrals
 For citations please refer to: http://libint.valeyev.net

 Your ORCA version has been built with support for libXC version: 4.2.3
 For citations please refer to: https://tddft.org/programs/libxc/

 This ORCA versions uses:
   CBLAS   interface :  Fast vector & matrix operations
   LAPACKE interface :  Fast linear algebra routines
   SCALAPACK package :  Parallel linear algebra routines


----- Orbital basis set information -----
Your calculation utilizes the basis: def2-TZVP
   F. Weigend and R. Ahlrichs, Phys. Chem. Chem. Phys. 7, 3297 (2005).

================================================================================
                                        WARNINGS
                       Please study these warnings very carefully!
================================================================================


WARNING: The frozen-core approximation for MP2-gradient calculations is turned on by default.

INFO   : the flag for use of LIBINT has been found!

----- Orbital basis set information -----
Your calculation utilizes the basis: def2-TZVP
   F. Weigend and R. Ahlrichs, Phys. Chem. Chem. Phys. 7, 3297 (2005).

================================================================================
                                        WARNINGS
                       Please study these warnings very carefully!
================================================================================


WARNING: The frozen-core approximation for MP2-gradient calculations is turned on by default.

INFO   : the flag for use of LIBINT has been found!

----- Orbital basis set information -----
Your calculation utilizes the basis: def2-TZVP
   F. Weigend and R. Ahlrichs, Phys. Chem. Chem. Phys. 7, 3297 (2005).

================================================================================
                                        WARNINGS
                       Please study these warnings very carefully!
================================================================================


WARNING: The frozen-core approximation for MP2-gradient calculations is turned on by default.

INFO   : the flag for use of LIBINT has been found!

----- Orbital basis set information -----
Your calculation utilizes the basis: def2-TZVP
   F. Weigend and R. Ahlrichs, Phys. Chem. Chem. Phys. 7, 3297 (2005).

================================================================================
                                        WARNINGS
                       Please study these warnings very carefully!
================================================================================


WARNING: The frozen-core approximation for MP2-gradient calculations is turned on by default.

INFO   : the flag for use of LIBINT has been found!

----- Orbital basis set information -----
Your calculation utilizes the basis: def2-TZVP
   F. Weigend and R. Ahlrichs, Phys. Chem. Chem. Phys. 7, 3297 (2005).

================================================================================
                                        WARNINGS
                       Please study these warnings very carefully!
================================================================================


WARNING: The frozen-core approximation for MP2-gradient calculations is turned on by default.

INFO   : the flag for use of LIBINT has been found!

----- Orbital basis set information -----
Your calculation utilizes the basis: def2-TZVP
   F. Weigend and R. Ahlrichs, Phys. Chem. Chem. Phys. 7, 3297 (2005).

================================================================================
                                        WARNINGS
                       Please study these warnings very carefully!
================================================================================


WARNING: The frozen-core approximation for MP2-gradient calculations is turned on by default.

INFO   : the flag for use of LIBINT has been found!

----- Orbital basis set information -----
Your calculation utilizes the basis: def2-TZVP
   F. Weigend and R. Ahlrichs, Phys. Chem. Chem. Phys. 7, 3297 (2005).

================================================================================
                                        WARNINGS
                       Please study these warnings very carefully!
================================================================================


WARNING: The frozen-core approximation for MP2-gradient calculations is turned on by default.

INFO   : the flag for use of LIBINT has been found!

----- Orbital basis set information -----
Your calculation utilizes the basis: def2-TZVP
   F. Weigend and R. Ahlrichs, Phys. Chem. Chem. Phys. 7, 3297 (2005).

================================================================================
                                        WARNINGS
                       Please study these warnings very carefully!
================================================================================


WARNING: The frozen-core approximation for MP2-gradient calculations is turned on by default.

INFO   : the flag for use of LIBINT has been found!

----- Orbital basis set information -----
Your calculation utilizes the basis: def2-TZVP
   F. Weigend and R. Ahlrichs, Phys. Chem. Chem. Phys. 7, 3297 (2005).

================================================================================
                                        WARNINGS
                       Please study these warnings very carefully!
================================================================================


WARNING: The frozen-core approximation for MP2-gradient calculations is turned on by default.

INFO   : the flag for use of LIBINT has been found!

----- Orbital basis set information -----
Your calculation utilizes the basis: def2-TZVP
   F. Weigend and R. Ahlrichs, Phys. Chem. Chem. Phys. 7, 3297 (2005).

================================================================================
                                        WARNINGS
                       Please study these warnings very carefully!
================================================================================


WARNING: The frozen-core approximation for MP2-gradient calculations is turned on by default.

INFO   : the flag for use of LIBINT has been found!

----- Orbital basis set information -----
Your calculation utilizes the basis: def2-TZVP
   F. Weigend and R. Ahlrichs, Phys. Chem. Chem. Phys. 7, 3297 (2005).

================================================================================
                                        WARNINGS
                       Please study these warnings very carefully!
================================================================================


WARNING: The frozen-core approximation for MP2-gradient calculations is turned on by default.

INFO   : the flag for use of LIBINT has been found!

----- Orbital basis set information -----
Your calculation utilizes the basis: def2-TZVP
   F. Weigend and R. Ahlrichs, Phys. Chem. Chem. Phys. 7, 3297 (2005).

================================================================================
                                        WARNINGS
                       Please study these warnings very carefully!
================================================================================


WARNING: The frozen-core approximation for MP2-gradient calculations is turned on by default.

INFO   : the flag for use of LIBINT has been found!

----- Orbital basis set information -----
Your calculation utilizes the basis: def2-TZVP
   F. Weigend and R. Ahlrichs, Phys. Chem. Chem. Phys. 7, 3297 (2005).

================================================================================
                                        WARNINGS
                       Please study these warnings very carefully!
================================================================================


WARNING: The frozen-core approximation for MP2-gradient calculations is turned on by default.

INFO   : the flag for use of LIBINT has been found!

----- Orbital basis set information -----
Your calculation utilizes the basis: def2-TZVP
   F. Weigend and R. Ahlrichs, Phys. Chem. Chem. Phys. 7, 3297 (2005).

================================================================================
                                        WARNINGS
                       Please study these warnings very carefully!
================================================================================


WARNING: The frozen-core approximation for MP2-gradient calculations is turned on by default.

INFO   : the flag for use of LIBINT has been found!

----- Orbital basis set information -----
Your calculation utilizes the basis: def2-TZVP
   F. Weigend and R. Ahlrichs, Phys. Chem. Chem. Phys. 7, 3297 (2005).

================================================================================
                                        WARNINGS
                       Please study these warnings very carefully!
================================================================================


WARNING: The frozen-core approximation for MP2-gradient calculations is turned on by default.

INFO   : the flag for use of LIBINT has been found!

----- Orbital basis set information -----
Your calculation utilizes the basis: def2-TZVP
   F. Weigend and R. Ahlrichs, Phys. Chem. Chem. Phys. 7, 3297 (2005).

================================================================================
                                        WARNINGS
                       Please study these warnings very carefully!
================================================================================


WARNING: The frozen-core approximation for MP2-gradient calculations is turned on by default.

INFO   : the flag for use of LIBINT has been found!

----- Orbital basis set information -----
Your calculation utilizes the basis: def2-TZVP
   F. Weigend and R. Ahlrichs, Phys. Chem. Chem. Phys. 7, 3297 (2005).

================================================================================
                                        WARNINGS
                       Please study these warnings very carefully!
================================================================================


WARNING: The frozen-core approximation for MP2-gradient calculations is turned on by default.

INFO   : the flag for use of LIBINT has been found!

----- Orbital basis set information -----
Your calculation utilizes the basis: def2-TZVP
   F. Weigend and R. Ahlrichs, Phys. Chem. Chem. Phys. 7, 3297 (2005).

================================================================================
                                        WARNINGS
                       Please study these warnings very carefully!
================================================================================


WARNING: The frozen-core approximation for MP2-gradient calculations is turned on by default.

INFO   : the flag for use of LIBINT has been found!

----- Orbital basis set information -----
Your calculation utilizes the basis: def2-TZVP
   F. Weigend and R. Ahlrichs, Phys. Chem. Chem. Phys. 7, 3297 (2005).

================================================================================
                                        WARNINGS
                       Please study these warnings very carefully!
================================================================================


WARNING: The frozen-core approximation for MP2-gradient calculations is turned on by default.

INFO   : the flag for use of LIBINT has been found!

----- Orbital basis set information -----
Your calculation utilizes the basis: def2-TZVP
   F. Weigend and R. Ahlrichs, Phys. Chem. Chem. Phys. 7, 3297 (2005).

================================================================================
                                        WARNINGS
                       Please study these warnings very carefully!
================================================================================


WARNING: The frozen-core approximation for MP2-gradient calculations is turned on by default.

INFO   : the flag for use of LIBINT has been found!

----- Orbital basis set information -----
Your calculation utilizes the basis: def2-TZVP
   F. Weigend and R. Ahlrichs, Phys. Chem. Chem. Phys. 7, 3297 (2005).

================================================================================
                                        WARNINGS
                       Please study these warnings very carefully!
================================================================================


WARNING: The frozen-core approximation for MP2-gradient calculations is turned on by default.

INFO   : the flag for use of LIBINT has been found!

----- Orbital basis set information -----
Your calculation utilizes the basis: def2-TZVP
   F. Weigend and R. Ahlrichs, Phys. Chem. Chem. Phys. 7, 3297 (2005).

================================================================================
                                        WARNINGS
                       Please study these warnings very carefully!
================================================================================


WARNING: The frozen-core approximation for MP2-gradient calculations is turned on by default.

INFO   : the flag for use of LIBINT has been found!

----- Orbital basis set information -----
Your calculation utilizes the basis: def2-TZVP
   F. Weigend and R. Ahlrichs, Phys. Chem. Chem. Phys. 7, 3297 (2005).

================================================================================
                                        WARNINGS
                       Please study these warnings very carefully!
================================================================================


WARNING: The frozen-core approximation for MP2-gradient calculations is turned on by default.

INFO   : the flag for use of LIBINT has been found!

----- Orbital basis set information -----
Your calculation utilizes the basis: def2-TZVP
   F. Weigend and R. Ahlrichs, Phys. Chem. Chem. Phys. 7, 3297 (2005).

================================================================================
                                        WARNINGS
                       Please study these warnings very carefully!
================================================================================


WARNING: The frozen-core approximation for MP2-gradient calculations is turned on by default.

INFO   : the flag for use of LIBINT has been found!

----- Orbital basis set information -----
Your calculation utilizes the basis: def2-TZVP
   F. Weigend and R. Ahlrichs, Phys. Chem. Chem. Phys. 7, 3297 (2005).

================================================================================
                                        WARNINGS
                       Please study these warnings very carefully!
================================================================================


WARNING: The frozen-core approximation for MP2-gradient calculations is turned on by default.

INFO   : the flag for use of LIBINT has been found!

----- Orbital basis set information -----
Your calculation utilizes the basis: def2-TZVP
   F. Weigend and R. Ahlrichs, Phys. Chem. Chem. Phys. 7, 3297 (2005).

================================================================================
                                        WARNINGS
                       Please study these warnings very carefully!
================================================================================


WARNING: The frozen-core approximation for MP2-gradient calculations is turned on by default.

INFO   : the flag for use of LIBINT has been found!

----- Orbital basis set information -----
Your calculation utilizes the basis: def2-TZVP
   F. Weigend and R. Ahlrichs, Phys. Chem. Chem. Phys. 7, 3297 (2005).

================================================================================
                                        WARNINGS
                       Please study these warnings very carefully!
================================================================================


WARNING: The frozen-core approximation for MP2-gradient calculations is turned on by default.

INFO   : the flag for use of LIBINT has been found!

----- Orbital basis set information -----
Your calculation utilizes the basis: def2-TZVP
   F. Weigend and R. Ahlrichs, Phys. Chem. Chem. Phys. 7, 3297 (2005).

================================================================================
                                        WARNINGS
                       Please study these warnings very carefully!
================================================================================


WARNING: The frozen-core approximation for MP2-gradient calculations is turned on by default.

INFO   : the flag for use of LIBINT has been found!

----- Orbital basis set information -----
Your calculation utilizes the basis: def2-TZVP
   F. Weigend and R. Ahlrichs, Phys. Chem. Chem. Phys. 7, 3297 (2005).

================================================================================
                                        WARNINGS
                       Please study these warnings very carefully!
================================================================================


WARNING: The frozen-core approximation for MP2-gradient calculations is turned on by default.

INFO   : the flag for use of LIBINT has been found!

----- Orbital basis set information -----
Your calculation utilizes the basis: def2-TZVP
   F. Weigend and R. Ahlrichs, Phys. Chem. Chem. Phys. 7, 3297 (2005).

================================================================================
                                        WARNINGS
                       Please study these warnings very carefully!
================================================================================


WARNING: The frozen-core approximation for MP2-gradient calculations is turned on by default.

INFO   : the flag for use of LIBINT has been found!

----- Orbital basis set information -----
Your calculation utilizes the basis: def2-TZVP
   F. Weigend and R. Ahlrichs, Phys. Chem. Chem. Phys. 7, 3297 (2005).

================================================================================
                                        WARNINGS
                       Please study these warnings very carefully!
================================================================================


WARNING: The frozen-core approximation for MP2-gradient calculations is turned on by default.

INFO   : the flag for use of LIBINT has been found!

----- Orbital basis set information -----
Your calculation utilizes the basis: def2-TZVP
   F. Weigend and R. Ahlrichs, Phys. Chem. Chem. Phys. 7, 3297 (2005).

================================================================================
                                        WARNINGS
                       Please study these warnings very carefully!
================================================================================


WARNING: The frozen-core approximation for MP2-gradient calculations is turned on by default.

INFO   : the flag for use of LIBINT has been found!

----- Orbital basis set information -----
Your calculation utilizes the basis: def2-TZVP
   F. Weigend and R. Ahlrichs, Phys. Chem. Chem. Phys. 7, 3297 (2005).

================================================================================
                                        WARNINGS
                       Please study these warnings very carefully!
================================================================================


WARNING: The frozen-core approximation for MP2-gradient calculations is turned on by default.

INFO   : the flag for use of LIBINT has been found!

----- Orbital basis set information -----
Your calculation utilizes the basis: def2-TZVP
   F. Weigend and R. Ahlrichs, Phys. Chem. Chem. Phys. 7, 3297 (2005).

================================================================================
                                        WARNINGS
                       Please study these warnings very carefully!
================================================================================


WARNING: The frozen-core approximation for MP2-gradient calculations is turned on by default.

INFO   : the flag for use of LIBINT has been found!

----- Orbital basis set information -----
Your calculation utilizes the basis: def2-TZVP
   F. Weigend and R. Ahlrichs, Phys. Chem. Chem. Phys. 7, 3297 (2005).

================================================================================
                                        WARNINGS
                       Please study these warnings very carefully!
================================================================================


WARNING: The frozen-core approximation for MP2-gradient calculations is turned on by default.

INFO   : the flag for use of LIBINT has been found!

----- Orbital basis set information -----
Your calculation utilizes the basis: def2-TZVP
   F. Weigend and R. Ahlrichs, Phys. Chem. Chem. Phys. 7, 3297 (2005).

================================================================================
                                        WARNINGS
                       Please study these warnings very carefully!
================================================================================


WARNING: The frozen-core approximation for MP2-gradient calculations is turned on by default.

INFO   : the flag for use of LIBINT has been found!

----- Orbital basis set information -----
Your calculation utilizes the basis: def2-TZVP
   F. Weigend and R. Ahlrichs, Phys. Chem. Chem. Phys. 7, 3297 (2005).

================================================================================
                                        WARNINGS
                       Please study these warnings very carefully!
================================================================================


WARNING: The frozen-core approximation for MP2-gradient calculations is turned on by default.

INFO   : the flag for use of LIBINT has been found!

----- Orbital basis set information -----
Your calculation utilizes the basis: def2-TZVP
   F. Weigend and R. Ahlrichs, Phys. Chem. Chem. Phys. 7, 3297 (2005).

================================================================================
                                        WARNINGS
                       Please study these warnings very carefully!
================================================================================


WARNING: The frozen-core approximation for MP2-gradient calculations is turned on by default.

INFO   : the flag for use of LIBINT has been found!

----- Orbital basis set information -----
Your calculation utilizes the basis: def2-TZVP
   F. Weigend and R. Ahlrichs, Phys. Chem. Chem. Phys. 7, 3297 (2005).

================================================================================
                                        WARNINGS
                       Please study these warnings very carefully!
================================================================================


WARNING: The frozen-core approximation for MP2-gradient calculations is turned on by default.

INFO   : the flag for use of LIBINT has been found!

----- Orbital basis set information -----
Your calculation utilizes the basis: def2-TZVP
   F. Weigend and R. Ahlrichs, Phys. Chem. Chem. Phys. 7, 3297 (2005).

================================================================================
                                        WARNINGS
                       Please study these warnings very carefully!
================================================================================


WARNING: The frozen-core approximation for MP2-gradient calculations is turned on by default.

INFO   : the flag for use of LIBINT has been found!

----- Orbital basis set information -----
Your calculation utilizes the basis: def2-TZVP
   F. Weigend and R. Ahlrichs, Phys. Chem. Chem. Phys. 7, 3297 (2005).

================================================================================
                                        WARNINGS
                       Please study these warnings very carefully!
================================================================================


WARNING: The frozen-core approximation for MP2-gradient calculations is turned on by default.

INFO   : the flag for use of LIBINT has been found!

----- Orbital basis set information -----
Your calculation utilizes the basis: def2-TZVP
   F. Weigend and R. Ahlrichs, Phys. Chem. Chem. Phys. 7, 3297 (2005).

================================================================================
                                        WARNINGS
                       Please study these warnings very carefully!
================================================================================


WARNING: The frozen-core approximation for MP2-gradient calculations is turned on by default.

INFO   : the flag for use of LIBINT has been found!

----- Orbital basis set information -----
Your calculation utilizes the basis: def2-TZVP
   F. Weigend and R. Ahlrichs, Phys. Chem. Chem. Phys. 7, 3297 (2005).

================================================================================
                                        WARNINGS
                       Please study these warnings very carefully!
================================================================================


WARNING: The frozen-core approximation for MP2-gradient calculations is turned on by default.

INFO   : the flag for use of LIBINT has been found!

----- Orbital basis set information -----
Your calculation utilizes the basis: def2-TZVP
   F. Weigend and R. Ahlrichs, Phys. Chem. Chem. Phys. 7, 3297 (2005).

================================================================================
                                        WARNINGS
                       Please study these warnings very carefully!
================================================================================


WARNING: The frozen-core approximation for MP2-gradient calculations is turned on by default.

INFO   : the flag for use of LIBINT has been found!

----- Orbital basis set information -----
Your calculation utilizes the basis: def2-TZVP
   F. Weigend and R. Ahlrichs, Phys. Chem. Chem. Phys. 7, 3297 (2005).

================================================================================
                                        WARNINGS
                       Please study these warnings very carefully!
================================================================================


WARNING: The frozen-core approximation for MP2-gradient calculations is turned on by default.

INFO   : the flag for use of LIBINT has been found!

----- Orbital basis set information -----
Your calculation utilizes the basis: def2-TZVP
   F. Weigend and R. Ahlrichs, Phys. Chem. Chem. Phys. 7, 3297 (2005).

================================================================================
                                        WARNINGS
                       Please study these warnings very carefully!
================================================================================


WARNING: The frozen-core approximation for MP2-gradient calculations is turned on by default.

INFO   : the flag for use of LIBINT has been found!

----- Orbital basis set information -----
Your calculation utilizes the basis: def2-TZVP
   F. Weigend and R. Ahlrichs, Phys. Chem. Chem. Phys. 7, 3297 (2005).

================================================================================
                                        WARNINGS
                       Please study these warnings very carefully!
================================================================================


WARNING: The frozen-core approximation for MP2-gradient calculations is turned on by default.

INFO   : the flag for use of LIBINT has been found!

----- Orbital basis set information -----
Your calculation utilizes the basis: def2-TZVP
   F. Weigend and R. Ahlrichs, Phys. Chem. Chem. Phys. 7, 3297 (2005).

================================================================================
                                        WARNINGS
                       Please study these warnings very carefully!
================================================================================


WARNING: The frozen-core approximation for MP2-gradient calculations is turned on by default.

INFO   : the flag for use of LIBINT has been found!

================================================================================
                                       INPUT FILE
================================================================================
NAME = 4meoh.boyd.etal.dset.3meoh.dset-orca.engrad-mp2.def2tzvp.inp
|  1> # 4meoh.boyd.etal.dset.3meoh.dset-orca.engrad-mp2.def2tzvp
|  2> ! MP2 def2-TZVP EnGrad TightSCF FrozenCore
|  3> 
|  4> %pal
|  5>     nprocs 12
|  6> end
|  7> 
|  8> %maxcore 8000
|  9> 
| 10> %scf
| 11>     ConvForced true
| 12> end
| 13> 
| 14> *xyz 0 1
| 15> O  -0.884089922   1.829748437   0.160551251
| 16> H   0.092922414   2.012906450   0.150780038
| 17> C  -1.458096075   2.423865672  -0.996720205
| 18> H  -2.518408574   2.156023875  -1.016143078
| 19> H  -0.990943803   2.067581213  -1.926176899
| 20> H  -1.378620766   3.519239884  -0.964927655
| 21> O  -0.716088190  -0.866008786   0.273945636
| 22> H  -0.892666285   0.110673260   0.217447787
| 23> C  -1.341708893  -1.363524067   1.449616676
| 24> H  -1.115564893  -2.431366560   1.519802125
| 25> H  -2.432846758  -1.243811649   1.402918380
| 26> H  -0.975698531  -0.868626917   2.360845521
| 27> O   1.977054403  -0.698272908   0.127355722
| 28> H   1.004043497  -0.872003308   0.232681548
| 29> C   2.425198130  -1.390990374  -1.030456982
| 30> H   3.485778485  -1.160368525  -1.165811951
| 31> H   1.882836070  -1.086208850  -1.937068319
| 32> H   2.320300273  -2.478140836  -0.911204565
| 33> *
| 34> 
| 35> 
| 36> $new_job
| 37> 
| 38> # 4meoh.boyd.etal.dset.3meoh.dset-orca.engrad-mp2.def2tzvp
| 39> ! MP2 def2-TZVP EnGrad TightSCF FrozenCore
| 40> 
| 41> %pal
| 42>     nprocs 12
| 43> end
| 44> 
| 45> %maxcore 8000
| 46> 
| 47> %scf
| 48>     ConvForced true
| 49> end
| 50> 
| 51> *xyz 0 1
| 52> O  -0.879773206   0.734986813  -0.196511902
| 53> H   0.097239131   0.918144826  -0.206283116
| 54> C  -1.453779358   1.329104048  -1.353783359
| 55> H  -2.514091857   1.061262251  -1.373206231
| 56> H  -0.986627086   0.972819589  -2.283240052
| 57> H  -1.374304049   2.424478261  -1.321990809
| 58> O  -0.711771474  -1.960770409  -0.083117518
| 59> H  -0.888349569  -0.984088363  -0.139615367
| 60> C  -1.337392176  -2.458285691   1.092553522
| 61> H  -1.111248176  -3.526128184   1.162738972
| 62> H  -2.428530041  -2.338573272   1.045855226
| 63> H  -0.971381815  -1.963388540   2.003782368
| 64> O   1.816289312   0.905498282  -0.280969728
| 65> H   1.986122964  -0.073478252  -0.304703825
| 66> C   2.503040813   1.445570941   0.840701360
| 67> H   2.289243537   2.517642375   0.876291383
| 68> H   3.589418873   1.312511055   0.745786866
| 69> H   2.178199660   0.993040019   1.788771550
| 70> *
| 71> 
| 72> 
| 73> $new_job
| 74> 
| 75> # 4meoh.boyd.etal.dset.3meoh.dset-orca.engrad-mp2.def2tzvp
| 76> ! MP2 def2-TZVP EnGrad TightSCF FrozenCore
| 77> 
| 78> %pal
| 79>     nprocs 12
| 80> end
| 81> 
| 82> %maxcore 8000
| 83> 
| 84> %scf
| 85>     ConvForced true
| 86> end
| 87> 
| 88> *xyz 0 1
| 89> O  -1.946638612   0.722699671   0.235086030
| 90> H  -0.969626276   0.905857684   0.225314817
| 91> C  -2.520644764   1.316816906  -0.922185427
| 92> H  -3.580957263   1.048975108  -0.941608299
| 93> H  -2.053492493   0.960532446  -1.851642120
| 94> H  -2.441169455   2.412191118  -0.890392877
| 95> O   0.914505713  -1.805321674   0.201890500
| 96> H  -0.058505193  -1.979052074   0.307216326
| 97> C   1.362649441  -2.498039140  -0.955922204
| 98> H   2.423229796  -2.267417291  -1.091277173
| 99> H   0.820287380  -2.193257617  -1.862533541
|100> H   1.257751583  -3.585189602  -0.836669787
|101> O   0.749423906   0.893211139   0.150628204
|102> H   0.919257557  -0.085765395   0.126894108
|103> C   1.436175407   1.433283799   1.272299292
|104> H   1.222378131   2.505355233   1.307889315
|105> H   2.522553467   1.300223912   1.177384798
|106> H   1.111334254   0.980752876   2.220369482
|107> *
|108> 
|109> 
|110> $new_job
|111> 
|112> # 4meoh.boyd.etal.dset.3meoh.dset-orca.engrad-mp2.def2tzvp
|113> ! MP2 def2-TZVP EnGrad TightSCF FrozenCore
|114> 
|115> %pal
|116>     nprocs 12
|117> end
|118> 
|119> %maxcore 8000
|120> 
|121> %scf
|122>     ConvForced true
|123> end
|124> 
|125> *xyz 0 1
|126> O  -1.814623451  -0.902367865  -0.073115511
|127> H  -1.991201547   0.074314181  -0.129613360
|128> C  -2.440244154  -1.399883146   1.102555530
|129> H  -2.214100154  -2.467725639   1.172740979
|130> H  -3.531382019  -1.280170727   1.055857234
|131> H  -2.074233793  -0.904985996   2.013784375
|132> O   0.878519141  -0.734631987  -0.219705425
|133> H  -0.094491765  -0.908362387  -0.114379599
|134> C   1.326662869  -1.427349453  -1.377518129
|135> H   2.387243224  -1.196727604  -1.512873098
|136> H   0.784300808  -1.122567929  -2.284129466
|137> H   1.221765011  -2.514499915  -1.258265712
|138> O   0.713437334   1.963900826  -0.270967720
|139> H   0.883270986   0.984924293  -0.294701817
|140> C   1.400188835   2.503973486   0.850703368
|141> H   1.186391559   3.576044920   0.886293391
|142> H   2.486566895   2.370913599   0.755788873
|143> H   1.075347682   2.051442563   1.798773558
|144> *
|145> 
|146> 
|147> $new_job
|148> 
|149> # 4meoh.boyd.etal.dset.3meoh.dset-orca.engrad-mp2.def2tzvp
|150> ! MP2 def2-TZVP EnGrad TightSCF FrozenCore
|151> 
|152> %pal
|153>     nprocs 12
|154> end
|155> 
|156> %maxcore 8000
|157> 
|158> %scf
|159>     ConvForced true
|160> end
|161> 
|162> *xyz 0 1
|163> O   0.345331880  -1.769865154  -0.950198787
|164> H   1.070748513  -1.691901536  -0.276678915
|165> C   0.927921038  -2.084737700  -2.207101435
|166> H   0.119884100  -2.142877224  -2.941882559
|167> H   1.438659824  -3.057361212  -2.179661223
|168> H   1.645867655  -1.321313002  -2.542080350
|169> O  -0.784116080   0.657223217  -0.548654315
|170> H  -0.415304580  -0.230393264  -0.798701957
|171> C  -2.144112982   0.477452498  -0.178923905
|172> H  -2.541582762   1.453894805   0.113442412
|173> H  -2.262324266  -0.216770248   0.666120883
|174> H  -2.741726070   0.101423479  -1.020836708
|175> O   1.101462596   1.230345960   1.323906820
|176> H   0.377048783   1.152907265   0.649227390
|177> C   0.516484430   1.540162635   2.580957304
|178> H   1.323350371   1.597409886   3.317094945
|179> H  -0.200556390   0.774374048   2.912442532
|180> H   0.004036721   2.511950276   2.555867302
|181> *
|182> 
|183> 
|184> $new_job
|185> 
|186> # 4meoh.boyd.etal.dset.3meoh.dset-orca.engrad-mp2.def2tzvp
|187> ! MP2 def2-TZVP EnGrad TightSCF FrozenCore
|188> 
|189> %pal
|190>     nprocs 12
|191> end
|192> 
|193> %maxcore 8000
|194> 
|195> %scf
|196>     ConvForced true
|197> end
|198> 
|199> *xyz 0 1
|200> O  -0.355706940  -0.948648717  -0.557187163
|201> H   0.369709692  -0.870685099   0.116332709
|202> C   0.226882218  -1.263521263  -1.814089811
|203> H  -0.581154721  -1.321660787  -2.548870935
|204> H   0.737621004  -2.236144775  -1.786649599
|205> H   0.944828834  -0.500096565  -2.149068726
|206> O  -1.485154900   1.478439654  -0.155642691
|207> H  -1.116343400   0.590823173  -0.405690333
|208> C  -2.845151803   1.298668935   0.214087720
|209> H  -3.242621583   2.275111242   0.506454036
|210> H  -2.963363087   0.604446189   1.059132507
|211> H  -3.442764891   0.922639916  -0.627825084
|212> O   1.531128619  -0.374643546   1.313835837
|213> H   1.163794564   0.513732118   1.563426871
|214> C   2.891699136  -0.197856428   0.944799711
|215> H   3.287966268  -1.175608086   0.655183533
|216> H   3.489225980   0.179334258   1.786257314
|217> H   3.011749122   0.494076132   0.098111793
|218> *
|219> 
|220> 
|221> $new_job
|222> 
|223> # 4meoh.boyd.etal.dset.3meoh.dset-orca.engrad-mp2.def2tzvp
|224> ! MP2 def2-TZVP EnGrad TightSCF FrozenCore
|225> 
|226> %pal
|227>     nprocs 12
|228> end
|229> 
|230> %maxcore 8000
|231> 
|232> %scf
|233>     ConvForced true
|234> end
|235> 
|236> *xyz 0 1
|237> O  -1.101224878  -1.228499591  -1.323531135
|238> H  -0.375808245  -1.150535973  -0.650011263
|239> C  -0.518635720  -1.543372138  -2.580433783
|240> H  -1.326672658  -1.601511662  -3.315214907
|241> H  -0.007896934  -2.515995650  -2.552993571
|242> H   0.199310897  -0.779947439  -2.915412698
|243> O  -0.345094163   1.771711523   0.950574472
|244> H  -1.069507975   1.694272828   0.275895042
|245> C  -0.930072328   2.081528198   2.207624956
|246> H  -0.123206387   2.138775449   2.943762597
|247> H  -1.647113148   1.315739611   2.539110185
|248> H  -1.442520037   3.053315839   2.182534954
|249> O   0.785610681  -0.654494420   0.547491865
|250> H   0.418276626   0.233881243   0.797082899
|251> C   2.146181198  -0.477707303   0.178455739
|252> H   2.542448331  -1.455458961  -0.111160439
|253> H   2.743708042  -0.100516617   1.019913342
|254> H   2.266231184   0.214225258  -0.668232179
|255> *
|256> 
|257> 
|258> $new_job
|259> 
|260> # 4meoh.boyd.etal.dset.3meoh.dset-orca.engrad-mp2.def2tzvp
|261> ! MP2 def2-TZVP EnGrad TightSCF FrozenCore
|262> 
|263> %pal
|264>     nprocs 12
|265> end
|266> 
|267> %maxcore 8000
|268> 
|269> %scf
|270>     ConvForced true
|271> end
|272> 
|273> *xyz 0 1
|274> O  -1.530547772   0.376734297  -1.314583010
|275> H  -1.161736272  -0.510882184  -1.564630652
|276> C  -2.890544675   0.196963578  -0.944852600
|277> H  -3.288014454   1.173405885  -0.652486284
|278> H  -3.008755958  -0.497259168  -0.099807813
|279> H  -3.488157762  -0.179065441  -1.786765404
|280> O   0.355030903   0.949857040   0.557978124
|281> H  -0.369382909   0.872418345  -0.116701306
|282> C  -0.229947262   1.259673715   1.815028608
|283> H   0.576918679   1.316920967   2.551166249
|284> H  -0.946988082   0.493885129   2.146513837
|285> H  -0.742394971   2.231461356   1.789938606
|286> O   1.485735747  -1.476348903   0.154895517
|287> H   1.118401692  -0.587973239   0.404486551
|288> C   2.846306264  -1.299561785  -0.214140609
|289> H   3.242573397  -2.277313443  -0.503756787
|290> H   3.443833108  -0.922371099   0.627316994
|291> H   2.966356250  -0.607629225  -1.060828527
|292> *
|293> 
|294> 
|295> $new_job
|296> 
|297> # 4meoh.boyd.etal.dset.3meoh.dset-orca.engrad-mp2.def2tzvp
|298> ! MP2 def2-TZVP EnGrad TightSCF FrozenCore
|299> 
|300> %pal
|301>     nprocs 12
|302> end
|303> 
|304> %maxcore 8000
|305> 
|306> %scf
|307>     ConvForced true
|308> end
|309> 
|310> *xyz 0 1
|311> O  -0.089513670  -1.524930861  -1.388988014
|312> H   0.848393898  -1.485179994  -1.065201344
|313> C  -0.067267772  -1.403407374  -2.806331775
|314> H  -1.104105378  -1.393758794  -3.154252900
|315> H   0.446256207  -2.255906097  -3.271650954
|316> H   0.422377063  -0.477111398  -3.138458136
|317> O  -1.005105844   0.566608870   0.059813440
|318> H  -0.767031379  -0.191827216  -0.536582357
|319> C  -1.997897198   0.116513112   0.969921746
|320> H  -2.237702671   0.947704164   1.639682298
|321> H  -1.658030900  -0.735520719   1.577680585
|322> H  -2.917699441  -0.178992628   0.446373754
|323> O   1.531017125   1.087795617   0.897475688
|324> H   0.576211243   1.016321180   0.636048362
|325> C   1.606097892   1.201648298   2.309773964
|326> H   2.662896399   1.279354599   2.581572056
|327> H   1.177812994   0.330207386   2.828841589
|328> H   1.093320717   2.105176950   2.668294170
|329> *
|330> 
|331> 
|332> $new_job
|333> 
|334> # 4meoh.boyd.etal.dset.3meoh.dset-orca.engrad-mp2.def2tzvp
|335> ! MP2 def2-TZVP EnGrad TightSCF FrozenCore
|336> 
|337> %pal
|338>     nprocs 12
|339> end
|340> 
|341> %maxcore 8000
|342> 
|343> %scf
|344>     ConvForced true
|345> end
|346> 
|347> *xyz 0 1
|348> O  -0.484989781  -0.633460273  -0.851108014
|349> H   0.452917788  -0.593709406  -0.527321343
|350> C  -0.462743883  -0.511936786  -2.268451774
|351> H  -1.499581489  -0.502288206  -2.616372899
|352> H   0.050780096  -1.364435509  -2.733770953
|353> H   0.026900952   0.414359190  -2.600578135
|354> O  -1.400581954   1.458079458   0.597693441
|355> H  -1.162507490   0.699643372   0.001297644
|356> C  -2.393373309   1.007983700   1.507801747
|357> H  -2.633178782   1.839174752   2.177562299
|358> H  -2.053507011   0.155949869   2.115560586
|359> H  -3.313175552   0.712477960   0.984253755
|360> O   2.023481048  -0.201819718   0.072002831
|361> H   1.829671816   0.621217100   0.591389765
|362> C   2.656104985  -1.138733972   0.931749659
|363> H   2.845397382  -2.046262108   0.351525764
|364> H   2.031195695  -1.405697524   1.797350009
|365> H   3.619215995  -0.758732443   1.300083995
|366> *
|367> 
|368> 
|369> $new_job
|370> 
|371> # 4meoh.boyd.etal.dset.3meoh.dset-orca.engrad-mp2.def2tzvp
|372> ! MP2 def2-TZVP EnGrad TightSCF FrozenCore
|373> 
|374> %pal
|375>     nprocs 12
|376> end
|377> 
|378> %maxcore 8000
|379> 
|380> %scf
|381>     ConvForced true
|382> end
|383> 
|384> *xyz 0 1
|385> O  -1.494679898  -0.907061624  -1.216529282
|386> H  -0.556772330  -0.867310757  -0.892742611
|387> C  -1.472434000  -0.785538138  -2.633873042
|388> H  -2.509271606  -0.775889557  -2.981794167
|389> H  -0.958910021  -1.638036860  -3.099192221
|390> H  -0.982789165   0.140757839  -2.965999403
|391> O   0.125850897   1.705664854   1.069934420
|392> H  -0.828954985   1.634190417   0.808507095
|393> C   0.200931664   1.819517535   2.482232697
|394> H   1.257730171   1.897223835   2.754030789
|395> H  -0.227353234   0.948076622   3.001300322
|396> H  -0.311845511   2.723046187   2.840752903
|397> O   1.013790931  -0.475421070  -0.293418438
|398> H   0.819981699   0.347615749   0.225968497
|399> C   1.646414868  -1.412335324   0.566328391
|400> H   1.835707265  -2.319863459  -0.013895504
|401> H   1.021505578  -1.679298875   1.431928741
|402> H   2.609525878  -1.032333794   0.934662727
|403> *
|404> 
|405> 
|406> $new_job
|407> 
|408> # 4meoh.boyd.etal.dset.3meoh.dset-orca.engrad-mp2.def2tzvp
|409> ! MP2 def2-TZVP EnGrad TightSCF FrozenCore
|410> 
|411> %pal
|412>     nprocs 12
|413> end
|414> 
|415> %maxcore 8000
|416> 
|417> %scf
|418>     ConvForced true
|419> end
|420> 
|421> *xyz 0 1
|422> O  -1.930743248   0.589260299  -0.624940772
|423> H  -1.692668783  -0.169175788  -1.221336568
|424> C  -2.923534603   0.139164540   0.285167534
|425> H  -3.163340076   0.970355592   0.954928086
|426> H  -2.583668305  -0.712869291   0.892926374
|427> H  -3.843336846  -0.156341199  -0.238380457
|428> O   0.605379720   1.110447046   0.212721476
|429> H  -0.349426162   1.038972609  -0.048705850
|430> C   0.680460487   1.224299727   1.625019753
|431> H   1.737258994   1.302006027   1.896817844
|432> H   0.252175589   0.352858814   2.144087377
|433> H   0.167683313   2.127828378   1.983539958
|434> O   1.493319755  -1.070638878  -1.150631382
|435> H   1.299510522  -0.247602059  -0.631244448
|436> C   2.125943691  -2.007553132  -0.290884554
|437> H   2.315236089  -2.915081267  -0.871108448
|438> H   1.501034401  -2.274516684   0.574715796
|439> H   3.089054701  -1.627551603   0.077449783
|440> *
|441> 
|442> 
|443> $new_job
|444> 
|445> # 4meoh.boyd.etal.dset.3meoh.dset-orca.engrad-mp2.def2tzvp
|446> ! MP2 def2-TZVP EnGrad TightSCF FrozenCore
|447> 
|448> %pal
|449>     nprocs 12
|450> end
|451> 
|452> %maxcore 8000
|453> 
|454> %scf
|455>     ConvForced true
|456> end
|457> 
|458> *xyz 0 1
|459> O  -0.226385498   1.726188198  -1.173224021
|460> H   0.643498450   1.920449624  -0.739815282
|461> C   0.047480481   1.077139580  -2.405898360
|462> H  -0.910584185   0.828155947  -2.871491623
|463> H   0.622774160   0.147817390  -2.273992298
|464> H   0.601450072   1.732606440  -3.092420286
|465> O  -1.056292940   0.043591719   0.802779178
|466> H  -0.888122473   0.679451984   0.061149313
|467> C  -2.165247832  -0.779097705   0.482675826
|468> H  -2.336424121  -1.450151031   1.329434541
|469> H  -1.991948032  -1.392850631  -0.414893852
|470> H  -3.076220580  -0.184612801   0.326403362
|471> O   1.503314293  -0.491635861   1.499316740
|472> H   0.524480546  -0.385216295   1.385735435
|473> C   1.889251924  -1.661609226   0.793678002
|474> H   2.974488846  -1.763677837   0.885906436
|475> H   1.633589472  -1.612033723  -0.275990190
|476> H   1.423548111  -2.561420484   1.219467492
|477> *
|478> 
|479> 
|480> $new_job
|481> 
|482> # 4meoh.boyd.etal.dset.3meoh.dset-orca.engrad-mp2.def2tzvp
|483> ! MP2 def2-TZVP EnGrad TightSCF FrozenCore
|484> 
|485> %pal
|486>     nprocs 12
|487> end
|488> 
|489> %maxcore 8000
|490> 
|491> %scf
|492>     ConvForced true
|493> end
|494> 
|495> *xyz 0 1
|496> O  -0.594116589   0.743862471  -0.798949179
|497> H   0.275767360   0.938123897  -0.365540440
|498> C  -0.320250610   0.094813853  -2.031623518
|499> H  -1.278315275  -0.154169780  -2.497216781
|500> H   0.255043070  -0.834508337  -1.899717456
|501> H   0.233718982   0.750280713  -2.718145444
|502> O  -1.424024031  -0.938734008   1.177054020
|503> H  -1.255853563  -0.302873743   0.435424155
|504> C  -2.532978922  -1.761423432   0.856950668
|505> H  -2.704155211  -2.432476758   1.703709382
|506> H  -2.359679122  -2.375176358  -0.040619010
|507> H  -3.443951670  -1.166938528   0.700678204
|508> O   1.734215632   0.846081175   0.576629753
|509> H   1.635018145   0.020729142   1.116594283
|510> C   3.087503485   0.998908794   0.183922559
|511> H   3.164640618   1.928471709  -0.387552716
|512> H   3.439653281   0.172116998  -0.452298598
|513> H   3.753651472   1.075186740   1.054636092
|514> *
|515> 
|516> 
|517> $new_job
|518> 
|519> # 4meoh.boyd.etal.dset.3meoh.dset-orca.engrad-mp2.def2tzvp
|520> ! MP2 def2-TZVP EnGrad TightSCF FrozenCore
|521> 
|522> %pal
|523>     nprocs 12
|524> end
|525> 
|526> %maxcore 8000
|527> 
|528> %scf
|529>     ConvForced true
|530> end
|531> 
|532> *xyz 0 1
|533> O  -1.682437674   0.984884976  -0.973803177
|534> H  -0.812553726   1.179146402  -0.540394438
|535> C  -1.408571695   0.335836358  -2.206477516
|536> H  -2.366636361   0.086852725  -2.672070779
|537> H  -0.833278016  -0.593485832  -2.074571454
|538> H  -0.854602104   0.991303218  -2.892999442
|539> O   0.047262117  -1.232939083   1.698737584
|540> H  -0.931571630  -1.126519517   1.585156279
|541> C   0.433199748  -2.402912448   0.993098846
|542> H   1.518436670  -2.504981059   1.085327280
|543> H   0.177537296  -2.353336945  -0.076569346
|544> H  -0.032504065  -3.302723706   1.418888336
|545> O   0.645894546   1.087103680   0.401775756
|546> H   0.546697059   0.261751648   0.941740286
|547> C   1.999182399   1.239931299   0.009068562
|548> H   2.076319533   2.169494214  -0.562406714
|549> H   2.351332195   0.413139503  -0.627152596
|550> H   2.665330386   1.316209245   0.879782094
|551> *
|552> 
|553> 
|554> $new_job
|555> 
|556> # 4meoh.boyd.etal.dset.3meoh.dset-orca.engrad-mp2.def2tzvp
|557> ! MP2 def2-TZVP EnGrad TightSCF FrozenCore
|558> 
|559> %pal
|560>     nprocs 12
|561> end
|562> 
|563> %maxcore 8000
|564> 
|565> %scf
|566>     ConvForced true
|567> end
|568> 
|569> *xyz 0 1
|570> O  -2.000754564  -0.112562840   0.204601338
|571> H  -1.832584097   0.523297425  -0.537028527
|572> C  -3.109709455  -0.935252264  -0.115502014
|573> H  -3.280885744  -1.606305591   0.731256701
|574> H  -2.936409655  -1.549005190  -1.013071692
|575> H  -4.020682204  -0.340767360  -0.271774478
|576> O   0.558852669  -0.647790420   0.901138900
|577> H  -0.419981077  -0.541370855   0.787557595
|578> C   0.944790301  -1.817763786   0.195500162
|579> H   2.030027223  -1.919832396   0.287728596
|580> H   0.689127848  -1.768188283  -0.874168030
|581> H   0.479086488  -2.717575043   0.621289652
|582> O   1.157485099   1.672252342  -0.395822928
|583> H   1.058287611   0.846900310   0.144141602
|584> C   2.510772952   1.825079962  -0.788530122
|585> H   2.587910085   2.754642876  -1.360005398
|586> H   2.862922748   0.998288166  -1.424751280
|587> H   3.176920939   1.901357907   0.082183410
|588> *
|589> 
|590> 
|591> $new_job
|592> 
|593> # 4meoh.boyd.etal.dset.3meoh.dset-orca.engrad-mp2.def2tzvp
|594> ! MP2 def2-TZVP EnGrad TightSCF FrozenCore
|595> 
|596> %pal
|597>     nprocs 12
|598> end
|599> 
|600> %maxcore 8000
|601> 
|602> %scf
|603>     ConvForced true
|604> end
|605> 
|606> *xyz 0 1
|607> O   1.881339589  -1.025038599   0.112573625
|608> H   0.894112019  -0.961001237   0.142667191
|609> C   2.239016240  -1.806400140  -1.016922519
|610> H   3.331097943  -1.859722674  -1.050339180
|611> H   1.885657289  -1.367838670  -1.962197438
|612> H   1.845450545  -2.830310448  -0.941968131
|613> O  -0.836102580  -0.781027025   0.208680997
|614> H  -1.045216082   0.166678795   0.034922593
|615> C  -1.337555260  -1.104854763   1.500359256
|616> H  -1.043102860  -2.135039681   1.717957091
|617> H  -2.434573561  -1.044268786   1.531742493
|618> H  -0.927757445  -0.451044266   2.282676168
|619> O  -1.407629816   1.895242776  -0.099968650
|620> H  -2.261042825   2.103815497  -0.508200965
|621> C  -0.404937777   2.749669697  -0.677073227
|622> H   0.561121650   2.428551077  -0.278821862
|623> H  -0.584470982   3.797058892  -0.402241540
|624> H  -0.385102954   2.662950196  -1.771610092
|625> *
|626> 
|627> 
|628> $new_job
|629> 
|630> # 4meoh.boyd.etal.dset.3meoh.dset-orca.engrad-mp2.def2tzvp
|631> ! MP2 def2-TZVP EnGrad TightSCF FrozenCore
|632> 
|633> %pal
|634>     nprocs 12
|635> end
|636> 
|637> %maxcore 8000
|638> 
|639> %scf
|640>     ConvForced true
|641> end
|642> 
|643> *xyz 0 1
|644> O   0.586475960  -0.823948633  -0.270465994
|645> H  -0.400751610  -0.759911271  -0.240372428
|646> C   0.944152610  -1.605310174  -1.399962138
|647> H   2.036234314  -1.658632707  -1.433378800
|648> H   0.590793659  -1.166748704  -2.345237058
|649> H   0.550586916  -2.629220482  -1.325007751
|650> O  -2.130966210  -0.579937059  -0.174358623
|651> H  -2.340079712   0.367768761  -0.348117026
|652> C  -2.632418889  -0.903764797   1.117319637
|653> H  -2.337966489  -1.933949715   1.334917472
|654> H  -3.729437191  -0.843178820   1.148702874
|655> H  -2.222621074  -0.249954300   1.899636549
|656> O   1.326153518   1.836339943  -0.235287382
|657> H   1.119859034   0.873533731  -0.284269060
|658> C   1.994387638   2.063867546   0.988693521
|659> H   2.213401189   3.134985267   1.055453339
|660> H   2.949988294   1.519124519   1.054049189
|661> H   1.388198777   1.786327547   1.866681467
|662> *
|663> 
|664> 
|665> $new_job
|666> 
|667> # 4meoh.boyd.etal.dset.3meoh.dset-orca.engrad-mp2.def2tzvp
|668> ! MP2 def2-TZVP EnGrad TightSCF FrozenCore
|669> 
|670> %pal
|671>     nprocs 12
|672> end
|673> 
|674> %maxcore 8000
|675> 
|676> %scf
|677>     ConvForced true
|678> end
|679> 
|680> *xyz 0 1
|681> O   0.535919966  -1.902584038   0.142384965
|682> H  -0.451307604  -1.838546677   0.172478531
|683> C   0.893596616  -2.683945580  -0.987111179
|684> H   1.985678320  -2.737268113  -1.020527841
|685> H   0.540237665  -2.245384109  -1.932386099
|686> H   0.500030922  -3.707855887  -0.912156792
|687> O  -2.753049440   1.017697337  -0.070157310
|688> H  -3.606462448   1.226270058  -0.478389625
|689> C  -1.750357400   1.872124258  -0.647261888
|690> H  -0.784297974   1.551005638  -0.249010523
|691> H  -1.929890605   2.919513453  -0.372430201
|692> H  -1.730522577   1.785404757  -1.741798753
|693> O   1.275597524   0.757704538   0.177563577
|694> H   1.069303040  -0.205101674   0.128581899
|695> C   1.943831644   0.985232140   1.401544480
|696> H   2.162845195   2.056349861   1.468304298
|697> H   2.899432300   0.440489113   1.466900148
|698> H   1.337642783   0.707692141   2.279532426
|699> *
|700> 
|701> 
|702> $new_job
|703> 
|704> # 4meoh.boyd.etal.dset.3meoh.dset-orca.engrad-mp2.def2tzvp
|705> ! MP2 def2-TZVP EnGrad TightSCF FrozenCore
|706> 
|707> %pal
|708>     nprocs 12
|709> end
|710> 
|711> %maxcore 8000
|712> 
|713> %scf
|714>     ConvForced true
|715> end
|716> 
|717> *xyz 0 1
|718> O  -1.141762097  -1.824118706  -0.190365894
|719> H  -1.350875599  -0.876412885  -0.364124298
|720> C  -1.643214777  -2.147946443   1.101312365
|721> H  -1.348762377  -3.178131362   1.318910200
|722> H  -2.740233078  -2.087360466   1.132695602
|723> H  -1.233416962  -1.494135946   1.883629277
|724> O  -1.713289333   0.852151096  -0.499015541
|725> H  -2.566702342   1.060723817  -0.907247856
|726> C  -0.710597294   1.706578017  -1.076120118
|727> H   0.255462133   1.385459397  -0.677868753
|728> H  -0.890130499   2.753967212  -0.801288431
|729> H  -0.690762471   1.619858516  -2.170656983
|730> O   2.315357631   0.592158297  -0.251294654
|731> H   2.109063146  -0.370647915  -0.300276332
|732> C   2.983591751   0.819685899   0.972686250
|733> H   3.202605302   1.890803620   1.039446067
|734> H   3.939192406   0.274942872   1.038041917
|735> H   2.377402889   0.542145900   1.850674195
|736> *
|737> 
|738> 
|739> $new_job
|740> 
|741> # 4meoh.boyd.etal.dset.3meoh.dset-orca.engrad-mp2.def2tzvp
|742> ! MP2 def2-TZVP EnGrad TightSCF FrozenCore
|743> 
|744> %pal
|745>     nprocs 12
|746> end
|747> 
|748> %maxcore 8000
|749> 
|750> %scf
|751>     ConvForced true
|752> end
|753> 
|754> *xyz 0 1
|755> O   0.248439531  -1.230741440  -1.218391415
|756> H   1.194074190  -1.205348067  -0.926941256
|757> C   0.199388088  -1.620732387  -2.585443000
|758> H  -0.846121531  -1.577431534  -2.902930817
|759> H   0.559496154  -2.649397057  -2.721440052
|760> H   0.790884989  -0.955430655  -3.230957340
|761> O   0.157512299   0.079034277   2.441254888
|762> H   0.168931479   0.635848896   1.637842158
|763> C  -0.875261561  -0.877668256   2.271894431
|764> H  -0.813457360  -1.577651969   3.111097023
|765> H  -0.773657644  -1.447169654   1.336123230
|766> H  -1.878219178  -0.419658573   2.289105135
|767> O   0.384394912   1.243406640  -0.148083642
|768> H   0.086202102   0.442828806  -0.649615180
|769> C  -0.171806109   2.420114555  -0.726928141
|770> H   0.198214651   3.272974543  -0.152709996
|771> H  -1.268872962   2.415630589  -0.678769560
|772> H   0.137207852   2.541985487  -1.773969782
|773> *
|774> 
|775> 
|776> $new_job
|777> 
|778> # 4meoh.boyd.etal.dset.3meoh.dset-orca.engrad-mp2.def2tzvp
|779> ! MP2 def2-TZVP EnGrad TightSCF FrozenCore
|780> 
|781> %pal
|782>     nprocs 12
|783> end
|784> 
|785> %maxcore 8000
|786> 
|787> %scf
|788>     ConvForced true
|789> end
|790> 
|791> *xyz 0 1
|792> O  -0.679453435  -0.445657412  -1.475548012
|793> H   0.266181224  -0.420264039  -1.184097853
|794> C  -0.728504878  -0.835648359  -2.842599597
|795> H  -1.774014497  -0.792347506  -3.160087414
|796> H  -0.368396812  -1.864313030  -2.978596649
|797> H  -0.137007977  -0.170346627  -3.488113937
|798> O  -0.770380667   0.864118304   2.184098291
|799> H  -0.758961487   1.420932924   1.380685561
|800> C  -1.803154527  -0.092584228   2.014737835
|801> H  -1.741350326  -0.792567941   2.853940426
|802> H  -1.701550610  -0.662085626   1.078966633
|803> H  -2.806112144   0.365425455   2.031948538
|804> O   1.737751533   0.397474343  -0.577167988
|805> H   1.244148181   1.236350346  -0.471840892
|806> C   2.210652271   0.008723919   0.719894864
|807> H   2.560530326  -1.023708255   0.636944804
|808> H   1.414367198   0.070648325   1.470420842
|809> H   3.056778424   0.636680428   1.030744814
|810> *
|811> 
|812> 
|813> $new_job
|814> 
|815> # 4meoh.boyd.etal.dset.3meoh.dset-orca.engrad-mp2.def2tzvp
|816> ! MP2 def2-TZVP EnGrad TightSCF FrozenCore
|817> 
|818> %pal
|819>     nprocs 12
|820> end
|821> 
|822> %maxcore 8000
|823> 
|824> %scf
|825>     ConvForced true
|826> end
|827> 
|828> *xyz 0 1
|829> O  -0.830790104  -1.171895163  -0.547936719
|830> H   0.114844556  -1.146501790  -0.256486561
|831> C  -0.879841547  -1.561886110  -1.914988305
|832> H  -1.925351166  -1.518585257  -2.232476122
|833> H  -0.519733480  -2.590550780  -2.050985356
|834> H  -0.288344646  -0.896584378  -2.560502644
|835> O  -0.694834722   1.302252917   0.522371054
|836> H  -0.993027533   0.501675083   0.020839516
|837> C  -1.251035744   2.478960832  -0.056473445
|838> H  -0.881014984   3.331820820   0.517744700
|839> H  -2.348102597   2.474476866  -0.008314864
|840> H  -0.942021783   2.600831764  -1.103515086
|841> O   1.586414865  -0.328763408   0.350443305
|842> H   1.092811512   0.510112595   0.455770401
|843> C   2.059315603  -0.717513831   1.647506157
|844> H   2.409193657  -1.749946006   1.564556097
|845> H   1.263030529  -0.655589426   2.398032135
|846> H   2.905441755  -0.089557323   1.958356106
|847> *
|848> 
|849> 
|850> $new_job
|851> 
|852> # 4meoh.boyd.etal.dset.3meoh.dset-orca.engrad-mp2.def2tzvp
|853> ! MP2 def2-TZVP EnGrad TightSCF FrozenCore
|854> 
|855> %pal
|856>     nprocs 12
|857> end
|858> 
|859> %maxcore 8000
|860> 
|861> %scf
|862>     ConvForced true
|863> end
|864> 
|865> *xyz 0 1
|866> O  -0.719940794  -0.210497407   1.705297845
|867> H  -0.708521613   0.346317212   0.901885115
|868> C  -1.752714653  -1.167199940   1.535937389
|869> H  -1.690910453  -1.867183653   2.375139981
|870> H  -1.651110737  -1.736701338   0.600166188
|871> H  -2.755672270  -0.709190257   1.553148092
|872> O  -0.493058180   0.953874956  -0.884040684
|873> H  -0.791250991   0.153297122  -1.385572223
|874> C  -1.049259202   2.130582872  -1.462885183
|875> H  -0.679238442   2.983442859  -0.888667038
|876> H  -2.146326055   2.126098905  -1.414726602
|877> H  -0.740245241   2.252453803  -2.509926824
|878> O   1.788191407  -0.677141369  -1.055968434
|879> H   1.294588054   0.161734634  -0.950641338
|880> C   2.261092145  -1.065891792   0.241094418
|881> H   2.610970199  -2.098323967   0.158144359
|882> H   1.464807071  -1.003967387   0.991620397
|883> H   3.107218297  -0.437935284   0.551944368
|884> *
|885> 
|886> 
|887> $new_job
|888> 
|889> # 4meoh.boyd.etal.dset.3meoh.dset-orca.engrad-mp2.def2tzvp
|890> ! MP2 def2-TZVP EnGrad TightSCF FrozenCore
|891> 
|892> %pal
|893>     nprocs 12
|894> end
|895> 
|896> %maxcore 8000
|897> 
|898> %scf
|899>     ConvForced true
|900> end
|901> 
|902> *xyz 0 1
|903> O   0.433854329  -0.564885842  -1.106926936
|904> H   1.359560220  -0.606947661  -0.742690736
|905> C   0.450751630  -0.819996180  -2.508762414
|906> H  -0.575728379  -0.726976311  -2.872622073
|907> H   0.809324417  -1.833901104  -2.728674010
|908> H   1.081456975  -0.097483808  -3.043911207
|909> O  -0.608218691  -2.032280405   1.100496083
|910> H  -0.377049715  -1.645004974   0.233322188
|911> C  -1.502491431  -1.134082564   1.735822787
|912> H  -1.671297590  -1.504754705   2.751855017
|913> H  -2.480338812  -1.086262693   1.228333404
|914> H  -1.097622319  -0.113390886   1.802694188
|915> O   0.610086304   1.611054156   0.617060543
|916> H   0.264576704   1.049776065  -0.109316072
|917> C   0.558267546   2.975768350   0.218636478
|918> H   0.965887282   3.568690909   1.041395491
|919> H  -0.473578916   3.304482338   0.033380791
|920> H   1.158213024   3.171247173  -0.682078256
|921> *
|922> 
|923> 
|924> $new_job
|925> 
|926> # 4meoh.boyd.etal.dset.3meoh.dset-orca.engrad-mp2.def2tzvp
|927> ! MP2 def2-TZVP EnGrad TightSCF FrozenCore
|928> 
|929> %pal
|930>     nprocs 12
|931> end
|932> 
|933> %maxcore 8000
|934> 
|935> %scf
|936>     ConvForced true
|937> end
|938> 
|939> *xyz 0 1
|940> O  -0.272329506   0.410588728  -1.263107151
|941> H   0.653376385   0.368526909  -0.898870952
|942> C  -0.255432205   0.155478390  -2.664942629
|943> H  -1.281912214   0.248498259  -3.028802289
|944> H   0.103140582  -0.858426534  -2.884854226
|945> H   0.375273140   0.877990762  -3.200091423
|946> O  -1.314402526  -1.056805835   0.944315868
|947> H  -1.083233550  -0.669530404   0.077141973
|948> C  -2.208675266  -0.158607994   1.579642572
|949> H  -2.377481425  -0.529280135   2.595674801
|950> H  -3.186522647  -0.110788124   1.072153189
|951> H  -1.803806154   0.862083684   1.646513972
|952> O   1.965367090   0.763182406   0.172922570
|953> H   1.456565228   1.542928821   0.490774962
|954> C   2.037281625  -0.186472165   1.245558546
|955> H   2.658808255  -1.014885973   0.895112174
|956> H   1.045037569  -0.570242984   1.512474114
|957> H   2.516217245   0.255679762   2.128708759
|958> *
|959> 
|960> 
|961> $new_job
|962> 
|963> # 4meoh.boyd.etal.dset.3meoh.dset-orca.engrad-mp2.def2tzvp
|964> ! MP2 def2-TZVP EnGrad TightSCF FrozenCore
|965> 
|966> %pal
|967>     nprocs 12
|968> end
|969> 
|970> %maxcore 8000
|971> 
|972> %scf
|973>     ConvForced true
|974> end
|975> 
|976> *xyz 0 1
|977> O  -0.811667172  -0.871269476  -0.932966926
|978> H   0.114038718  -0.913331295  -0.568730726
|979> C  -0.794769872  -1.126379814  -2.334802404
|980> H  -1.821249881  -1.033359945  -2.698662063
|981> H  -0.436197085  -2.140284738  -2.554714000
|982> H  -0.164064527  -0.403867442  -2.869951197
|983> O  -0.635435197   1.304670522   0.791020553
|984> H  -0.980944797   0.743392431   0.064643938
|985> C  -0.687253956   2.669384716   0.392596488
|986> H  -0.279634219   3.262307275   1.215355501
|987> H  -1.719100418   2.998098704   0.207340802
|988> H  -0.087308478   2.864863539  -0.508118246
|989> O   1.426029423  -0.518675798   0.503062795
|990> H   0.917227561   0.261070617   0.820915187
|991> C   1.497943958  -1.468330369   1.575698771
|992> H   2.119470589  -2.296744177   1.225252400
|993> H   0.505699902  -1.852101188   1.842614339
|994> H   1.976879579  -1.026178442   2.458848985
|995> *
|996> 
|997> 
|998> $new_job
|999> 
|1000> # 4meoh.boyd.etal.dset.3meoh.dset-orca.engrad-mp2.def2tzvp
|1001> ! MP2 def2-TZVP EnGrad TightSCF FrozenCore
|1002> 
|1003> %pal
|1004>     nprocs 12
|1005> end
|1006> 
|1007> %maxcore 8000
|1008> 
|1009> %scf
|1010>     ConvForced true
|1011> end
|1012> 
|1013> *xyz 0 1
|1014> O  -1.349205846  -2.043808087   0.215183306
|1015> H  -1.118036870  -1.656532657  -0.651990589
|1016> C  -2.243478586  -1.145610246   0.850510010
|1017> H  -2.412284745  -1.516282387   1.866542240
|1018> H  -3.221325967  -1.097790376   0.343020627
|1019> H  -1.838609474  -0.124918568   0.917381411
|1020> O  -0.130900850   1.599526473  -0.268252234
|1021> H  -0.476410450   1.038248383  -0.994628849
|1022> C  -0.182719609   2.964240668  -0.666676299
|1023> H   0.224900127   3.557163227   0.156082714
|1024> H  -1.214566071   3.292954656  -0.851931986
|1025> H   0.417225869   3.159719491  -1.567391033
|1026> O   1.930563770  -0.223819846  -0.556209992
|1027> H   1.421761908   0.555926569  -0.238357600
|1028> C   2.002478305  -1.173474417   0.516425984
|1029> H   2.624004935  -2.001888226   0.165979613
|1030> H   1.010234249  -1.557245236   0.783341552
|1031> H   2.481413925  -0.731322490   1.399576198
|1032> *
|1033> 
|1034> 
|1035> $new_job
|1036> 
|1037> # 4meoh.boyd.etal.dset.3meoh.dset-orca.engrad-mp2.def2tzvp
|1038> ! MP2 def2-TZVP EnGrad TightSCF FrozenCore
|1039> 
|1040> %pal
|1041>     nprocs 12
|1042> end
|1043> 
|1044> %maxcore 8000
|1045> 
|1046> %scf
|1047>     ConvForced true
|1048> end
|1049> 
|1050> *xyz 0 1
|1051> O  -2.163140303  -0.239528472   0.354541320
|1052> H  -1.345592288  -0.733372407   0.582623147
|1053> C  -2.475093758  -0.488713962  -1.011926555
|1054> H  -3.356509657   0.109431214  -1.258055585
|1055> H  -2.715515548  -1.546568307  -1.182950352
|1056> H  -1.656254316  -0.203268477  -1.688148031
|1057> O   2.109841565  -2.215925841  -0.533444701
|1058> H   1.520646278  -1.577832463  -0.086258204
|1059> C   3.397933431  -1.641479471  -0.588736343
|1060> H   4.063644548  -2.370221492  -1.062559957
|1061> H   3.810064452  -1.409685198   0.408068200
|1062> H   3.431671515  -0.716781182  -1.189829111
|1063> O  -0.583305506   1.784848196   1.314776467
|1064> H  -1.365239590   1.303853634   0.954048136
|1065> C  -0.240823415   2.836171713   0.418838346
|1066> H   0.654471871   3.323645969   0.813634533
|1067> H  -1.042183579   3.584571370   0.355075942
|1068> H  -0.020409493   2.469251089  -0.594318587
|1069> *
|1070> 
|1071> 
|1072> $new_job
|1073> 
|1074> # 4meoh.boyd.etal.dset.3meoh.dset-orca.engrad-mp2.def2tzvp
|1075> ! MP2 def2-TZVP EnGrad TightSCF FrozenCore
|1076> 
|1077> %pal
|1078>     nprocs 12
|1079> end
|1080> 
|1081> %maxcore 8000
|1082> 
|1083> %scf
|1084>     ConvForced true
|1085> end
|1086> 
|1087> *xyz 0 1
|1088> O  -2.515916140   0.849165503   0.044827285
|1089> H  -1.698368125   0.355321569   0.272909113
|1090> C  -2.827869596   0.599980013  -1.321640589
|1091> H  -3.709285495   1.198125190  -1.567769619
|1092> H  -3.068291385  -0.457874331  -1.492664387
|1093> H  -2.009030154   0.885425499  -1.997862065
|1094> O   1.757065728  -1.127231866  -0.843158736
|1095> H   1.167870441  -0.489138488  -0.395972238
|1096> C   3.045157594  -0.552785496  -0.898450377
|1097> H   3.710868711  -1.281527517  -1.372273991
|1098> H   3.457288615  -0.320991223   0.098354166
|1099> H   3.078895678   0.371912793  -1.499543145
|1100> O   0.103263166   0.383997670   0.861652095
|1101> H  -0.022901186   1.358452180   0.990445354
|1102> C   0.444143474  -0.224210136   2.109448831
|1103> H   0.689850952  -1.266784315   1.896929308
|1104> H  -0.391472796  -0.183552324   2.819728838
|1105> H   1.320007962   0.258366119   2.560961751
|1106> *
|1107> 
|1108> 
|1109> $new_job
|1110> 
|1111> # 4meoh.boyd.etal.dset.3meoh.dset-orca.engrad-mp2.def2tzvp
|1112> ! MP2 def2-TZVP EnGrad TightSCF FrozenCore
|1113> 
|1114> %pal
|1115>     nprocs 12
|1116> end
|1117> 
|1118> %maxcore 8000
|1119> 
|1120> %scf
|1121>     ConvForced true
|1122> end
|1123> 
|1124> *xyz 0 1
|1125> O  -1.459927444  -0.551901431  -0.424965336
|1126> H  -0.642379429  -1.045745366  -0.196883509
|1127> C  -1.771880899  -0.801086921  -1.791433211
|1128> H  -2.653296799  -0.202941745  -2.037562241
|1129> H  -2.012302689  -1.858941265  -1.962457008
|1130> H  -0.953041458  -0.515641436  -2.467654687
|1131> O   0.119907353   1.472475237   0.535269811
|1132> H  -0.662026731   0.991480675   0.174541480
|1133> C   0.462389444   2.523798754  -0.360668310
|1134> H   1.357684730   3.011273011   0.034127877
|1135> H  -0.338970720   3.272198411  -0.424430714
|1136> H   0.682803366   2.156878130  -1.373825243
|1137> O   1.159251862  -1.017069264   0.391859473
|1138> H   1.033087510  -0.042614754   0.520652732
|1139> C   1.500132170  -1.625277070   1.639656209
|1140> H   1.745839649  -2.667851250   1.427136686
|1141> H   0.664515900  -1.584619259   2.349936217
|1142> H   2.375996658  -1.142700816   2.091169130
|1143> *
|1144> 
|1145> 
|1146> $new_job
|1147> 
|1148> # 4meoh.boyd.etal.dset.3meoh.dset-orca.engrad-mp2.def2tzvp
|1149> ! MP2 def2-TZVP EnGrad TightSCF FrozenCore
|1150> 
|1151> %pal
|1152>     nprocs 12
|1153> end
|1154> 
|1155> %maxcore 8000
|1156> 
|1157> %scf
|1158>     ConvForced true
|1159> end
|1160> 
|1161> *xyz 0 1
|1162> O   1.138398614  -2.016496210  -1.234966013
|1163> H   0.549203327  -1.378402832  -0.787779515
|1164> C   2.426490480  -1.442049840  -1.290257654
|1165> H   3.092201597  -2.170791861  -1.764081268
|1166> H   2.838621501  -1.210255567  -0.293453111
|1167> H   2.460228564  -0.517351551  -1.891350422
|1168> O  -1.554748458   1.984277827   0.613255156
|1169> H  -2.336682541   1.503283266   0.252526824
|1170> C  -1.212266366   3.035601345  -0.282682965
|1171> H  -0.316971080   3.523075601   0.112113222
|1172> H  -2.013626530   3.784001002  -0.346445370
|1173> H  -0.991852444   2.668680720  -1.295839898
|1174> O  -0.515403948  -0.505266674   0.469844818
|1175> H  -0.641568300   0.469187836   0.598638077
|1176> C  -0.174523640  -1.113474480   1.717641554
|1177> H   0.071183838  -2.156048659   1.505122031
|1178> H  -1.010139910  -1.072816668   2.427921561
|1179> H   0.701340848  -0.630898225   2.169154475
|1180> *
|1181> 
|1182> 
|1183> $new_job
|1184> 
|1185> # 4meoh.boyd.etal.dset.3meoh.dset-orca.engrad-mp2.def2tzvp
|1186> ! MP2 def2-TZVP EnGrad TightSCF FrozenCore
|1187> 
|1188> %pal
|1189>     nprocs 12
|1190> end
|1191> 
|1192> %maxcore 8000
|1193> 
|1194> %scf
|1195>     ConvForced true
|1196> end
|1197> 
|1198> *xyz 0 1
|1199> O   0.413347187  -0.041004434  -0.382905269
|1200> H   1.363043555  -0.039118459  -0.092400843
|1201> C   0.371927629  -0.160734735  -1.808021652
|1202> H  -0.653573993   0.046619828  -2.124500449
|1203> H   0.636786008  -1.176801904  -2.122975219
|1204> H   1.045180300   0.559115893  -2.290281476
|1205> O  -0.329967094  -2.727594188   0.118833226
|1206> H  -0.142002161  -1.768336648   0.121540891
|1207> C  -1.702949082  -2.900372100   0.399990661
|1208> H  -1.912064518  -3.974738919   0.370049229
|1209> H  -2.359039943  -2.410037391  -0.339034083
|1210> H  -1.986209673  -2.530511754   1.399655451
|1211> O   0.689137251   2.280546223   1.143989139
|1212> H   0.263161145   1.590562080   0.590313398
|1213> C   0.500812367   3.545070873   0.519647579
|1214> H   1.013001802   4.289965813   1.134171317
|1215> H  -0.563101683   3.813933626   0.466152232
|1216> H   0.924354479   3.579970227  -0.494864784
|1217> *
|1218> 
|1219> 
|1220> $new_job
|1221> 
|1222> # 4meoh.boyd.etal.dset.3meoh.dset-orca.engrad-mp2.def2tzvp
|1223> ! MP2 def2-TZVP EnGrad TightSCF FrozenCore
|1224> 
|1225> %pal
|1226>     nprocs 12
|1227> end
|1228> 
|1229> %maxcore 8000
|1230> 
|1231> %scf
|1232>     ConvForced true
|1233> end
|1234> 
|1235> *xyz 0 1
|1236> O  -0.399396814   0.829829366  -0.531252415
|1237> H   0.550299554   0.831715341  -0.240747989
|1238> C  -0.440816372   0.710099065  -1.956368798
|1239> H  -1.466317994   0.917453628  -2.272847595
|1240> H  -0.175957993  -0.305968103  -2.271322365
|1241> H   0.232436299   1.429949693  -2.438628622
|1242> O  -1.142711095  -1.856760388  -0.029513920
|1243> H  -0.954746162  -0.897502848  -0.026806255
|1244> C  -2.515693083  -2.029538299   0.251643515
|1245> H  -2.724808519  -3.103905119   0.221702083
|1246> H  -3.171783944  -1.539203591  -0.487381229
|1247> H  -2.798953674  -1.659677953   1.251308305
|1248> O   1.990159454   1.469534423   0.541925525
|1249> H   1.469667326   2.248546256   0.848470172
|1250> C   2.463632377   0.762503863   1.686067391
|1251> H   2.967822058  -0.137877673   1.326364120
|1252> H   1.646878369   0.463176965   2.357203313
|1253> H   3.186048153   1.363693802   2.254106635
|1254> *
|1255> 
|1256> 
|1257> $new_job
|1258> 
|1259> # 4meoh.boyd.etal.dset.3meoh.dset-orca.engrad-mp2.def2tzvp
|1260> ! MP2 def2-TZVP EnGrad TightSCF FrozenCore
|1261> 
|1262> %pal
|1263>     nprocs 12
|1264> end
|1265> 
|1266> %maxcore 8000
|1267> 
|1268> %scf
|1269>     ConvForced true
|1270> end
|1271> 
|1272> *xyz 0 1
|1273> O  -0.928638704  -1.060292616  -0.718343798
|1274> H   0.021057665  -1.058406641  -0.427839372
|1275> C  -0.970058261  -1.180022917  -2.143460181
|1276> H  -1.995559883  -0.972668354  -2.459938978
|1277> H  -0.705199882  -2.196090086  -2.458413748
|1278> H  -0.296805591  -0.460172289  -2.625720005
|1279> O  -0.652848639   1.261258041   0.808550610
|1280> H  -1.078824745   0.571273898   0.254874869
|1281> C  -0.841173523   2.525782691   0.184209050
|1282> H  -0.328984088   3.270677631   0.798732788
|1283> H  -1.905087573   2.794645444   0.130713703
|1284> H  -0.417631411   2.560682045  -0.830303313
|1285> O   1.460917565  -0.420587559   0.354834142
|1286> H   0.940425437   0.358424274   0.661378789
|1287> C   1.934390488  -1.127618119   1.498976008
|1288> H   2.438580169  -2.027999656   1.139272737
|1289> H   1.117636480  -1.426945017   2.170111930
|1290> H   2.656806264  -0.526428180   2.067015252
|1291> *
|1292> 
|1293> 
|1294> $new_job
|1295> 
|1296> # 4meoh.boyd.etal.dset.3meoh.dset-orca.engrad-mp2.def2tzvp
|1297> ! MP2 def2-TZVP EnGrad TightSCF FrozenCore
|1298> 
|1299> %pal
|1300>     nprocs 12
|1301> end
|1302> 
|1303> %maxcore 8000
|1304> 
|1305> %scf
|1306>     ConvForced true
|1307> end
|1308> 
|1309> *xyz 0 1
|1310> O  -1.196813234  -2.851780189  -0.661790556
|1311> H  -1.008848302  -1.892522649  -0.659082891
|1312> C  -2.569795222  -3.024558100  -0.380633121
|1313> H  -2.778910659  -4.098924920  -0.410574553
|1314> H  -3.225886083  -2.534223392  -1.119657865
|1315> H  -2.853055814  -2.654697754   0.619031669
|1316> O  -0.177708889   2.156360223   0.363365357
|1317> H  -0.603684995   1.466376079  -0.190310384
|1318> C  -0.366033773   3.420884872  -0.260976203
|1319> H   0.146155662   4.165779813   0.353547535
|1320> H  -1.429947824   3.689747626  -0.314471550
|1321> H   0.057508339   3.455784226  -1.275488565
|1322> O   1.936057315   0.474514622  -0.090351111
|1323> H   1.415565187   1.253526455   0.216193536
|1324> C   2.409530237  -0.232515938   1.053790755
|1325> H   2.913719919  -1.132897474   0.694087484
|1326> H   1.592776230  -0.531842836   1.724926677
|1327> H   3.131946013   0.368674001   1.621829999
|1328> *
|1329> 
|1330> 
|1331> $new_job
|1332> 
|1333> # 4meoh.boyd.etal.dset.3meoh.dset-orca.engrad-mp2.def2tzvp
|1334> ! MP2 def2-TZVP EnGrad TightSCF FrozenCore
|1335> 
|1336> %pal
|1337>     nprocs 12
|1338> end
|1339> 
|1340> %maxcore 8000
|1341> 
|1342> %scf
|1343>     ConvForced true
|1344> end
|1345> 
|1346> *xyz 0 1
|1347> O  -0.046280692  -1.969855422  -1.639060317
|1348> H   0.917638175  -2.029594714  -1.439605847
|1349> C  -0.222097148  -1.985361637  -3.050915101
|1350> H  -1.290246061  -1.862225373  -3.248970332
|1351> H   0.101478555  -2.941381663  -3.484270383
|1352> H   0.324332988  -1.172442839  -3.550991121
|1353> O  -0.548561407   1.265111342   2.374614261
|1354> H  -0.368352697   0.718035561   1.585700637
|1355> C   0.465878222   0.999564510   3.319748259
|1356> H   0.288591489   1.647878614   4.184068617
|1357> H   1.477728531   1.217707601   2.938075492
|1358> H   0.457327218  -0.044259650   3.676590346
|1359> O   0.249282370   0.270422021  -0.135439768
|1360> H  -0.127028957  -0.462950815  -0.685018223
|1361> C   0.063190113   1.513251634  -0.819339602
|1362> H   0.310042137   2.305804278  -0.110462344
|1363> H  -0.979960379   1.641629158  -1.133007777
|1364> H   0.716139215   1.591235882  -1.698733260
|1365> *
|1366> 
|1367> 
|1368> $new_job
|1369> 
|1370> # 4meoh.boyd.etal.dset.3meoh.dset-orca.engrad-mp2.def2tzvp
|1371> ! MP2 def2-TZVP EnGrad TightSCF FrozenCore
|1372> 
|1373> %pal
|1374>     nprocs 12
|1375> end
|1376> 
|1377> %maxcore 8000
|1378> 
|1379> %scf
|1380>     ConvForced true
|1381> end
|1382> 
|1383> *xyz 0 1
|1384> O  -0.917403288  -1.135783097  -1.741420792
|1385> H   0.046515578  -1.195522388  -1.541966322
|1386> C  -1.093219745  -1.151289311  -3.153275577
|1387> H  -2.161368658  -1.028153047  -3.351330807
|1388> H  -0.769644042  -2.107309337  -3.586630859
|1389> H  -0.546789609  -0.338370514  -3.653351596
|1390> O  -1.419684004   2.099183668   2.272253786
|1391> H  -1.239475294   1.552107887   1.483340161
|1392> C  -0.405244375   1.833636836   3.217387784
|1393> H  -0.582531107   2.481950940   4.081708142
|1394> H   0.606605934   2.051779927   2.835715016
|1395> H  -0.413795379   0.789812676   3.574229871
[...]
      f-1     :     0.002419
      f+2     :     0.001914
      f-2     :     0.002471
      f+3     :     0.001473
      f-3     :     0.001564
  3 H s       :     0.858728  s :     0.858728
      pz      :     0.006979  p :     0.022903
      px      :     0.007334
      py      :     0.008589
  4 H s       :     0.886854  s :     0.886854
      pz      :     0.005253  p :     0.022148
      px      :     0.011211
      py      :     0.005685
  5 H s       :     0.872708  s :     0.872708
      pz      :     0.010590  p :     0.022261
      px      :     0.007540
      py      :     0.004131
  6 O s       :     3.787774  s :     3.787774
      pz      :     1.821624  p :     4.694253
      px      :     1.421167
      py      :     1.451462
      dz2     :     0.008706  d :     0.057044
      dxz     :     0.011176
      dyz     :     0.010321
      dx2y2   :     0.016130
      dxy     :     0.010711
      f0      :     0.000652  f :     0.004260
      f+1     :     0.000517
      f-1     :     0.000585
      f+2     :     0.000728
      f-2     :     0.000464
      f+3     :     0.000754
      f-3     :     0.000561
  7 H s       :     0.590422  s :     0.590422
      pz      :     0.018756  p :     0.054568
      px      :     0.025412
      py      :     0.010399
  8 C s       :     3.210823  s :     3.210823
      pz      :     1.059634  p :     2.827191
      px      :     1.005517
      py      :     0.762040
      dz2     :     0.014556  d :     0.126207
      dxz     :     0.012958
      dyz     :     0.040403
      dx2y2   :     0.038091
      dxy     :     0.020199
      f0      :     0.001478  f :     0.011880
      f+1     :     0.001072
      f-1     :     0.002023
      f+2     :     0.000986
      f-2     :     0.001744
      f+3     :     0.001986
      f-3     :     0.002590
  9 H s       :     0.840276  s :     0.840276
      pz      :     0.004917  p :     0.022994
      px      :     0.014156
      py      :     0.003921
 10 H s       :     0.854770  s :     0.854770
      pz      :     0.010411  p :     0.022852
      px      :     0.004926
      py      :     0.007515
 11 H s       :     0.860179  s :     0.860179
      pz      :     0.011264  p :     0.022238
      px      :     0.004903
      py      :     0.006070
 12 O s       :     3.796629  s :     3.796629
      pz      :     1.423556  p :     4.669858
      px      :     1.716994
      py      :     1.529308
      dz2     :     0.011232  d :     0.057659
      dxz     :     0.010370
      dyz     :     0.014657
      dx2y2   :     0.009874
      dxy     :     0.011525
      f0      :     0.000640  f :     0.004288
      f+1     :     0.000762
      f-1     :     0.000521
      f+2     :     0.000557
      f-2     :     0.000731
      f+3     :     0.000652
      f-3     :     0.000426
 13 H s       :     0.613454  s :     0.613454
      pz      :     0.013731  p :     0.046699
      px      :     0.016555
      py      :     0.016413
 14 C s       :     3.230791  s :     3.230791
      pz      :     0.771331  p :     2.855283
      px      :     1.014421
      py      :     1.069530
      dz2     :     0.024062  d :     0.118088
      dxz     :     0.026360
      dyz     :     0.029089
      dx2y2   :     0.012797
      dxy     :     0.025780
      f0      :     0.002349  f :     0.011442
      f+1     :     0.001918
      f-1     :     0.001535
      f+2     :     0.001501
      f-2     :     0.002183
      f+3     :     0.000864
      f-3     :     0.001092
 15 H s       :     0.843822  s :     0.843822
      pz      :     0.006178  p :     0.023347
      px      :     0.006031
      py      :     0.011138
 16 H s       :     0.851689  s :     0.851689
      pz      :     0.007683  p :     0.022524
      px      :     0.008271
      py      :     0.006571
 17 H s       :     0.815909  s :     0.815909
      pz      :     0.003724  p :     0.023028
      px      :     0.011119
      py      :     0.008185


                     *******************************
                     * LOEWDIN POPULATION ANALYSIS *
                     *******************************

----------------------
LOEWDIN ATOMIC CHARGES
----------------------
   0 O :   -0.119048
   1 H :    0.158963
   2 C :   -0.394558
   3 H :    0.104904
   4 H :    0.090084
   5 H :    0.094553
   6 O :   -0.086051
   7 H :    0.162704
   8 C :   -0.371043
   9 H :    0.110445
  10 H :    0.102004
  11 H :    0.101022
  12 O :   -0.090471
  13 H :    0.181808
  14 C :   -0.367635
  15 H :    0.112820
  16 H :    0.102705
  17 H :    0.106794

-------------------------------
LOEWDIN REDUCED ORBITAL CHARGES
-------------------------------
  0 O s       :     3.382809  s :     3.382809
      pz      :     1.589338  p :     4.634636
      px      :     1.680694
      py      :     1.364604
      dz2     :     0.014636  d :     0.094606
      dxz     :     0.013998
      dyz     :     0.030406
      dx2y2   :     0.015630
      dxy     :     0.019935
      f0      :     0.000843  f :     0.006996
      f+1     :     0.000475
      f-1     :     0.001315
      f+2     :     0.001103
      f-2     :     0.001482
      f+3     :     0.001000
      f-3     :     0.000779
  1 H s       :     0.650481  s :     0.650481
      pz      :     0.058166  p :     0.190556
      px      :     0.062672
      py      :     0.069718
  2 C s       :     2.865597  s :     2.865597
      pz      :     1.017794  p :     3.022006
      px      :     1.084337
      py      :     0.919874
      dz2     :     0.075541  d :     0.445676
      dxz     :     0.087329
      dyz     :     0.112041
      dx2y2   :     0.065368
      dxy     :     0.105397
      f0      :     0.006061  f :     0.061280
      f+1     :     0.003335
      f-1     :     0.014402
      f+2     :     0.010340
      f-2     :     0.010196
      f+3     :     0.007608
      f-3     :     0.009339
  3 H s       :     0.831341  s :     0.831341
      pz      :     0.020222  p :     0.063756
      px      :     0.020499
      py      :     0.023035
  4 H s       :     0.846026  s :     0.846026
      pz      :     0.014785  p :     0.063890
      px      :     0.032891
      py      :     0.016214
  5 H s       :     0.841234  s :     0.841234
      pz      :     0.030713  p :     0.064213
      px      :     0.021715
      py      :     0.011785
  6 O s       :     3.372716  s :     3.372716
      pz      :     1.720939  p :     4.611262
      px      :     1.397698
      py      :     1.492625
      dz2     :     0.011653  d :     0.095067
      dxz     :     0.015721
      dyz     :     0.017436
      dx2y2   :     0.030260
      dxy     :     0.019996
      f0      :     0.000932  f :     0.007006
      f+1     :     0.000558
      f-1     :     0.000806
      f+2     :     0.001244
      f-2     :     0.000764
      f+3     :     0.001390
      f-3     :     0.001311
  7 H s       :     0.653709  s :     0.653709
      pz      :     0.059209  p :     0.183587
      px      :     0.093109
      py      :     0.031270
  8 C s       :     2.866633  s :     2.866633
      pz      :     1.095133  p :     3.017354
      px      :     1.039782
      py      :     0.882439
      dz2     :     0.053593  d :     0.427156
      dxz     :     0.024763
      dyz     :     0.141641
      dx2y2   :     0.134229
      dxy     :     0.072929
      f0      :     0.006701  f :     0.059901
      f+1     :     0.004826
      f-1     :     0.008114
      f+2     :     0.003677
      f-2     :     0.010475
      f+3     :     0.012082
      f-3     :     0.014025
  9 H s       :     0.824569  s :     0.824569
      pz      :     0.014020  p :     0.064987
      px      :     0.040193
      py      :     0.010774
 10 H s       :     0.833403  s :     0.833403
      pz      :     0.029944  p :     0.064593
      px      :     0.014238
      py      :     0.020411
 11 H s       :     0.834063  s :     0.834063
      pz      :     0.033463  p :     0.064915
      px      :     0.014414
      py      :     0.017038
 12 O s       :     3.381893  s :     3.381893
      pz      :     1.442426  p :     4.604828
      px      :     1.629905
      py      :     1.532497
      dz2     :     0.020784  d :     0.096674
      dxz     :     0.020654
      dyz     :     0.026425
      dx2y2   :     0.011696
      dxy     :     0.017114
      f0      :     0.001342  f :     0.007076
      f+1     :     0.001162
      f-1     :     0.000986
      f+2     :     0.001050
      f-2     :     0.001092
      f+3     :     0.000991
      f-3     :     0.000453
 13 H s       :     0.657925  s :     0.657925
      pz      :     0.038701  p :     0.160267
      px      :     0.050167
      py      :     0.071400
 14 C s       :     2.870621  s :     2.870621
      pz      :     0.876968  p :     3.025252
      px      :     1.051532
      py      :     1.096752
      dz2     :     0.102262  d :     0.413121
      dxz     :     0.098683
      dyz     :     0.101755
      dx2y2   :     0.027519
      dxy     :     0.082902
      f0      :     0.015397  f :     0.058641
      f+1     :     0.010412
      f-1     :     0.009308
      f+2     :     0.008986
      f-2     :     0.008088
      f+3     :     0.003073
      f-3     :     0.003378
 15 H s       :     0.822257  s :     0.822257
      pz      :     0.015953  p :     0.064924
      px      :     0.016557
      py      :     0.032414
 16 H s       :     0.832099  s :     0.832099
      pz      :     0.021834  p :     0.065196
      px      :     0.024364
      py      :     0.018998
 17 H s       :     0.824073  s :     0.824073
      pz      :     0.010722  p :     0.069133
      px      :     0.033354
      py      :     0.025057


                      *****************************
                      * MAYER POPULATION ANALYSIS *
                      *****************************

  NA   - Mulliken gross atomic population
  ZA   - Total nuclear charge
  QA   - Mulliken gross atomic charge
  VA   - Mayer's total valence
  BVA  - Mayer's bonded valence
  FA   - Mayer's free valence

  ATOM       NA         ZA         QA         VA         BVA        FA
  0 O      8.5399     8.0000    -0.5399     2.1131     1.7094     0.4038
  1 H      0.6426     1.0000     0.3574     0.9108     0.8623     0.0485
  2 C      6.1597     6.0000    -0.1597     4.0471     3.7680     0.2791
  3 H      0.8816     1.0000     0.1184     0.9640     0.9166     0.0474
  4 H      0.9090     1.0000     0.0910     0.9649     0.9150     0.0499
  5 H      0.8950     1.0000     0.1050     0.9657     0.9168     0.0490
  6 O      8.5433     8.0000    -0.5433     2.1285     1.7248     0.4036
  7 H      0.6450     1.0000     0.3550     0.9231     0.8755     0.0476
  8 C      6.1761     6.0000    -0.1761     3.9829     3.7048     0.2780
  9 H      0.8633     1.0000     0.1367     0.9704     0.9238     0.0466
 10 H      0.8776     1.0000     0.1224     0.9676     0.9200     0.0476
 11 H      0.8824     1.0000     0.1176     0.9640     0.9157     0.0483
 12 O      8.5284     8.0000    -0.5284     2.1404     1.7399     0.4005
 13 H      0.6602     1.0000     0.3398     0.8956     0.8460     0.0497
 14 C      6.2156     6.0000    -0.2156     3.9357     3.6572     0.2784
 15 H      0.8672     1.0000     0.1328     0.9672     0.9209     0.0462
 16 H      0.8742     1.0000     0.1258     0.9712     0.9239     0.0473
 17 H      0.8389     1.0000     0.1611     0.9856     0.9391     0.0464

  Mayer bond orders larger than 0.100000
B(  0-O ,  1-H ) :   0.7679 B(  0-O ,  2-C ) :   0.9409 B(  2-C ,  3-H ) :   0.9411 
B(  2-C ,  4-H ) :   0.9398 B(  2-C ,  5-H ) :   0.9394 B(  6-O ,  7-H ) :   0.7806 
B(  6-O ,  8-C ) :   0.8846 B(  8-C ,  9-H ) :   0.9404 B(  8-C , 10-H ) :   0.9403 
B(  8-C , 11-H ) :   0.9379 B( 12-O , 13-H ) :   0.8364 B( 12-O , 14-C ) :   0.8492 
B( 14-C , 15-H ) :   0.9404 B( 14-C , 16-H ) :   0.9358 B( 14-C , 17-H ) :   0.9217 



----------------------------------
MP2 DERIVATIVE INTEGRAL GENERATION
----------------------------------


Input Wavefunction Amplitudes       ... 4meoh.boyd.etal.dset.3meoh.dset-orca.engrad-mp2.def2tzvp_job48.mp2tsaa.tmp
Input Correlated Electron Density   ... 4meoh.boyd.etal.dset.3meoh.dset-orca.engrad-mp2.def2tzvp_job48.pmp2re
Input Energy Weighted Density       ... 4meoh.boyd.etal.dset.3meoh.dset-orca.engrad-mp2.def2tzvp_job48.wmp2.tmp
Input SCF Electron Density          ... 4meoh.boyd.etal.dset.3meoh.dset-orca.engrad-mp2.def2tzvp_job48.scfp

One-Electron Terms    ...
                        ... One-Electron Terms done
Prescreening matrices              ... done

Batch handling in the gradient evaluation:
Memory available                      ... 8000.0 MB
Memory per occupied orbital in Q2     ...   10.7 MB
Memory per occupied orbital in Q3     ...    0.1 MB
Total memory requirement per |i>      ...   10.8 MB
Max. Number of orbitals possible      ...    743
Number of orbitals treated per batch  ...     21
Number of batches to be done          ...      1
Batch   0: i=    6 ...    26

---------------------------------------
MP2 TOTAL ENERGY:     -346.546021484 Eh
---------------------------------------

The final MP2 gradient
  0:   0.00391521   0.00106384   0.00607111
  1:  -0.00737170  -0.00799893  -0.00427431
  2:   0.00160690   0.00310850  -0.00173717
  3:   0.00142315   0.00221432   0.00167291
  4:  -0.00288416   0.00064676  -0.00023162
  5:   0.00167539  -0.00051695  -0.00245454
  6:   0.00218340   0.00517920  -0.00080694
  7:  -0.00411170   0.00107035   0.00111127
  8:   0.00317189  -0.00009505  -0.00107079
  9:   0.00291703   0.00067409   0.00123887
 10:  -0.00179826  -0.00262839  -0.00286205
 11:  -0.00097876  -0.00245316   0.00301489
 12:   0.00095304  -0.00429212   0.00206679
 13:  -0.00161447   0.00338447  -0.00290151
 14:  -0.00092615  -0.00058260  -0.00300550
 15:   0.00105426  -0.00256846   0.00160966
 16:  -0.00223827   0.00174633   0.00258001
 17:   0.00302319   0.00204781  -0.00002107

-----------------------------------
NORM OF THE MP2 GRADIENT:  0.020859
-----------------------------------

-------------------------   --------------------
FINAL SINGLE POINT ENERGY      -346.546021483628
-------------------------   --------------------


                            ***************************************
                            *     ORCA property calculations      *
                            ***************************************

                                    ---------------------
                                    Active property flags
                                    ---------------------
   (+) Dipole Moment


------------------------------------------------------------------------------
                       ORCA ELECTRIC PROPERTIES CALCULATION
------------------------------------------------------------------------------

Dipole Moment Calculation                       ... on
Quadrupole Moment Calculation                   ... off
Polarizability Calculation                      ... off
GBWName                                         ... 4meoh.boyd.etal.dset.3meoh.dset-orca.engrad-mp2.def2tzvp_job48.gbw
Electron density file                           ... 4meoh.boyd.etal.dset.3meoh.dset-orca.engrad-mp2.def2tzvp_job48.scfp
The origin for moment calculation is the CENTER OF MASS  = ( 0.000026,  0.000006  0.000010)

-------------
DIPOLE MOMENT
-------------
                                X             Y             Z
Electronic contribution:     -1.83233      -0.59509      -0.47791
Nuclear contribution   :      1.04924       0.53522       0.50497
                        -----------------------------------------
Total Dipole Moment    :     -0.78309      -0.05987       0.02706
                        -----------------------------------------
Magnitude (a.u.)       :      0.78584
Magnitude (Debye)      :      1.99745



--------------------
Rotational spectrum 
--------------------
 
Rotational constants in cm-1:     0.083413     0.052795     0.036640 
Rotational constants in MHz :  2500.659782  1582.749625  1098.425213 

 Dipole components along the rotational axes: 
x,y,z [a.u.] :    -0.659993     0.231867    -0.358044 
x,y,z [Debye]:    -1.677570     0.589358    -0.910075 

 

                         *** MP2 UNRELAXED DENSITY ***

------------------------------------------------------------------------------
                       ORCA ELECTRIC PROPERTIES CALCULATION
------------------------------------------------------------------------------

Dipole Moment Calculation                       ... on
Quadrupole Moment Calculation                   ... off
Polarizability Calculation                      ... off
GBWName                                         ... 4meoh.boyd.etal.dset.3meoh.dset-orca.engrad-mp2.def2tzvp_job48.gbw
Electron density file                           ... 4meoh.boyd.etal.dset.3meoh.dset-orca.engrad-mp2.def2tzvp_job48.pmp2ur
The origin for moment calculation is the CENTER OF MASS  = ( 0.000026,  0.000006  0.000010)

-------------
DIPOLE MOMENT
-------------
                                X             Y             Z
Electronic contribution:     -1.83352      -0.60132      -0.47770
Nuclear contribution   :      1.04924       0.53522       0.50497
                        -----------------------------------------
Total Dipole Moment    :     -0.78428      -0.06610       0.02728
                        -----------------------------------------
Magnitude (a.u.)       :      0.78753
Magnitude (Debye)      :      2.00174



--------------------
Rotational spectrum 
--------------------
 
Rotational constants in cm-1:     0.083413     0.052795     0.036640 
Rotational constants in MHz :  2500.659782  1582.749625  1098.425213 

 Dipole components along the rotational axes: 
x,y,z [a.u.] :    -0.664430     0.227709    -0.356210 
x,y,z [Debye]:    -1.688846     0.578791    -0.905413 

 

                           *** MP2 RELAXED DENSITY ***

------------------------------------------------------------------------------
                       ORCA ELECTRIC PROPERTIES CALCULATION
------------------------------------------------------------------------------

Dipole Moment Calculation                       ... on
Quadrupole Moment Calculation                   ... off
Polarizability Calculation                      ... off
GBWName                                         ... 4meoh.boyd.etal.dset.3meoh.dset-orca.engrad-mp2.def2tzvp_job48.gbw
Electron density file                           ... 4meoh.boyd.etal.dset.3meoh.dset-orca.engrad-mp2.def2tzvp_job48.pmp2re
The origin for moment calculation is the CENTER OF MASS  = ( 0.000026,  0.000006  0.000010)

-------------
DIPOLE MOMENT
-------------
                                X             Y             Z
Electronic contribution:     -1.84670      -0.61240      -0.47543
Nuclear contribution   :      1.04924       0.53522       0.50497
                        -----------------------------------------
Total Dipole Moment    :     -0.79746      -0.07718       0.02954
                        -----------------------------------------
Magnitude (a.u.)       :      0.80173
Magnitude (Debye)      :      2.03785



--------------------
Rotational spectrum 
--------------------
 
Rotational constants in cm-1:     0.083413     0.052795     0.036640 
Rotational constants in MHz :  2500.659782  1582.749625  1098.425213 

 Dipole components along the rotational axes: 
x,y,z [a.u.] :    -0.681577     0.225102    -0.357157 
x,y,z [Debye]:    -1.732430     0.572163    -0.907821 

 

Timings for individual modules:

Sum of individual times         ...       80.364 sec (=   1.339 min)
GTO integral calculation        ...        0.893 sec (=   0.015 min)   1.1 %
SCF iterations                  ...       23.664 sec (=   0.394 min)  29.4 %
MP2 module                      ...       55.807 sec (=   0.930 min)  69.4 %



                             ****ORCA TERMINATED NORMALLY****
TOTAL RUN TIME: 0 days 0 hours 59 minutes 50 seconds 542 msec
