
                                 *****************
                                 * O   R   C   A *
                                 *****************

           --- An Ab Initio, DFT and Semiempirical electronic structure package ---

                  #######################################################
                  #                        -***-                        #
                  #          Department of theory and spectroscopy      #
                  #               Directorship: Frank Neese             #
                  #        Max Planck Institute fuer Kohlenforschung    #
                  #                Kaiser Wilhelm Platz 1               #
                  #                 D-45470 Muelheim/Ruhr               #
                  #                      Germany                        #
                  #                                                     #
                  #                  All rights reserved                #
                  #                        -***-                        #
                  #######################################################


                         Program Version 4.2.0 -  RELEASE  -


 With contributions from (in alphabetic order):
   Daniel Aravena         : Magnetic Suceptibility
   Michael Atanasov       : Ab Initio Ligand Field Theory (pilot matlab implementation)
   Alexander A. Auer      : GIAO ZORA, VPT2
   Ute Becker             : Parallelization
   Giovanni Bistoni       : ED, misc. LED, open-shell LED, HFLED
   Martin Brehm           : Molecular dynamics
   Dmytro Bykov           : SCF Hessian
   Vijay G. Chilkuri      : MRCI spin determinant printing, contributions to CSF-ICE
   Dipayan Datta          : RHF DLPNO-CCSD density
   Achintya Kumar Dutta   : EOM-CC, STEOM-CC
   Dmitry Ganyushin       : Spin-Orbit,Spin-Spin,Magnetic field MRCI
   Miquel Garcia          : C-PCM Hessian, Gaussian charge scheme
   Yang Guo               : DLPNO-NEVPT2, CIM, IAO-localization
   Andreas Hansen         : Spin unrestricted coupled pair/coupled cluster methods
   Benjamin Helmich-Paris : CASSCF linear response (MC-RPA)
   Lee Huntington         : MR-EOM, pCC
   Robert Izsak           : Overlap fitted RIJCOSX, COSX-SCS-MP3, EOM
   Christian Kollmar      : KDIIS, OOCD, Brueckner-CCSD(T), CCSD density
   Simone Kossmann        : Meta GGA functionals, TD-DFT gradient, OOMP2, MP2 Hessian
   Martin Krupicka        : AUTO-CI
   Lucas Lang             : DCDCAS
   Dagmar Lenk            : GEPOL surface, SMD
   Dimitrios Liakos       : Extrapolation schemes; Compound Job, initial MDCI parallelization
   Dimitrios Manganas     : Further ROCIS development; embedding schemes
   Dimitrios Pantazis     : SARC Basis sets
   Taras Petrenko         : DFT Hessian,TD-DFT gradient, ASA, ECA, R-Raman, ABS, FL, XAS/XES, NRVS
   Peter Pinski           : DLPNO-MP2, DLPNO-MP2 Gradient
   Christoph Reimann      : Effective Core Potentials
   Marius Retegan         : Local ZFS, SOC
   Christoph Riplinger    : Optimizer, TS searches, QM/MM, DLPNO-CCSD(T), (RO)-DLPNO pert. Triples
   Tobias Risthaus        : Range-separated hybrids, TD-DFT gradient, RPA, STAB
   Michael Roemelt        : Original ROCIS implementation
   Masaaki Saitow         : Open-shell DLPNO-CCSD energy and density
   Barbara Sandhoefer     : DKH picture change effects
   Avijit Sen             : IP-ROCIS
   Kantharuban Sivalingam : CASSCF convergence, NEVPT2, FIC-MRCI
   Bernardo de Souza      : ESD, SOC TD-DFT
   Georgi Stoychev        : AutoAux, RI-MP2 NMR
   Willem Van den Heuvel  : Paramagnetic NMR
   Boris Wezisla          : Elementary symmetry handling
   Frank Wennmohs         : Technical directorship


 We gratefully acknowledge several colleagues who have allowed us to
 interface, adapt or use parts of their codes:
   Stefan Grimme, W. Hujo, H. Kruse,             : VdW corrections, initial TS optimization,
                  C. Bannwarth                     DFT functionals, gCP, sTDA/sTD-DF
   Ed Valeev, F. Pavosevic, A. Kumar             : LibInt (2-el integral package), F12 methods
   Garnet Chan, S. Sharma, J. Yang, R. Olivares  : DMRG
   Ulf Ekstrom                                   : XCFun DFT Library
   Mihaly Kallay                                 : mrcc  (arbitrary order and MRCC methods)
   Andreas Klamt, Michael Diedenhofen            : otool_cosmo (COSMO solvation model)
   Jiri Pittner, Ondrej Demel                    : Mk-CCSD
   Frank Weinhold                                : gennbo (NPA and NBO analysis)
   Christopher J. Cramer and Donald G. Truhlar   : smd solvation model
   Lars Goerigk                                  : TD-DFT with DH, B97 family of functionals
   V. Asgeirsson, H. Jonsson                     : NEB implementation
   FAccTs GmbH                                   : IRC, NEB, NEB-TS, Multilevel, MM, QM/MM, CI optimization
   S Lehtola, MJT Oliveira, MAL Marques          : LibXC Library


 Your calculation uses the libint2 library for the computation of 2-el integrals
 For citations please refer to: http://libint.valeyev.net

 Your ORCA version has been built with support for libXC version: 4.2.3
 For citations please refer to: https://tddft.org/programs/libxc/

 This ORCA versions uses:
   CBLAS   interface :  Fast vector & matrix operations
   LAPACKE interface :  Fast linear algebra routines
   SCALAPACK package :  Parallel linear algebra routines


----- Orbital basis set information -----
Your calculation utilizes the basis: aug-cc-pVTZ 
    H, B-Ne : Obtained from the ccRepo (grant-hill.group.shef.ac.uk/ccrepo) Feb. 2017
              R. A. Kendall, T. H. Dunning, Jr., R. J. Harrison, J. Chem. Phys. 96, 6796 (1992)
         He : Obtained from the ccRepo (grant-hill.group.shef.ac.uk/ccrepo) Feb. 2017
              D. E. Woon, T. H. Dunning, Jr., J. Chem. Phys. 100, 2975 (1994)
  Li-Be, Na : Obtained from the ccRepo (grant-hill.group.shef.ac.uk/ccrepo) Feb. 2017
              B. P. Prascher, D. E. Woon, K. A. Peterson, T. H. Dunning, Jr., A. K. Wilson, Theor. Chem. Acc. 128, 69 (2011)
         Mg : Obtained from the Peterson Research Group Website (tyr0.chem.wsu.edu/~kipeters) Feb. 2017
              B. P. Prascher, D. E. Woon, K. A. Peterson, T. H. Dunning, Jr., A. K. Wilson, Theor. Chem. Acc. 128, 69 (2011)
      Al-Ar : Obtained from the ccRepo (grant-hill.group.shef.ac.uk/ccrepo) Feb. 2017
              D. E. Woon, T. H. Dunning, Jr., J. Chem. Phys. 98, 1358 (1993)
      Sc-Zn : Obtained from the ccRepo (grant-hill.group.shef.ac.uk/ccrepo) Feb. 2017
              N. B. Balabanov, K. A. Peterson, J. Chem. Phys. 123, 064107 (2005)
              N. B. Balabanov, K. A. Peterson, J. Chem. Phys. 125, 074110 (2006)
      Ga-Kr : Obtained from the ccRepo (grant-hill.group.shef.ac.uk/ccrepo) Feb. 2017
              A. K. Wilson, D. E. Woon, K. A. Peterson, T. H. Dunning, Jr., J. Chem. Phys. 110, 7667 (1999)
     Ag, Au : Obtained from the Peterson Research Group Website (tyr0.chem.wsu.edu/~kipeters) Feb. 2017
              K. A. Peterson, C. Puzzarini, Theor. Chem. Acc. 114, 283 (2005)

================================================================================
                                        WARNINGS
                       Please study these warnings very carefully!
================================================================================


WARNING: The frozen-core approximation for MP2-gradient calculations is turned on by default.

INFO   : the flag for use of LIBINT has been found!

----- Orbital basis set information -----
Your calculation utilizes the basis: aug-cc-pVTZ 
    H, B-Ne : Obtained from the ccRepo (grant-hill.group.shef.ac.uk/ccrepo) Feb. 2017
              R. A. Kendall, T. H. Dunning, Jr., R. J. Harrison, J. Chem. Phys. 96, 6796 (1992)
         He : Obtained from the ccRepo (grant-hill.group.shef.ac.uk/ccrepo) Feb. 2017
              D. E. Woon, T. H. Dunning, Jr., J. Chem. Phys. 100, 2975 (1994)
  Li-Be, Na : Obtained from the ccRepo (grant-hill.group.shef.ac.uk/ccrepo) Feb. 2017
              B. P. Prascher, D. E. Woon, K. A. Peterson, T. H. Dunning, Jr., A. K. Wilson, Theor. Chem. Acc. 128, 69 (2011)
         Mg : Obtained from the Peterson Research Group Website (tyr0.chem.wsu.edu/~kipeters) Feb. 2017
              B. P. Prascher, D. E. Woon, K. A. Peterson, T. H. Dunning, Jr., A. K. Wilson, Theor. Chem. Acc. 128, 69 (2011)
      Al-Ar : Obtained from the ccRepo (grant-hill.group.shef.ac.uk/ccrepo) Feb. 2017
              D. E. Woon, T. H. Dunning, Jr., J. Chem. Phys. 98, 1358 (1993)
      Sc-Zn : Obtained from the ccRepo (grant-hill.group.shef.ac.uk/ccrepo) Feb. 2017
              N. B. Balabanov, K. A. Peterson, J. Chem. Phys. 123, 064107 (2005)
              N. B. Balabanov, K. A. Peterson, J. Chem. Phys. 125, 074110 (2006)
      Ga-Kr : Obtained from the ccRepo (grant-hill.group.shef.ac.uk/ccrepo) Feb. 2017
              A. K. Wilson, D. E. Woon, K. A. Peterson, T. H. Dunning, Jr., J. Chem. Phys. 110, 7667 (1999)
     Ag, Au : Obtained from the Peterson Research Group Website (tyr0.chem.wsu.edu/~kipeters) Feb. 2017
              K. A. Peterson, C. Puzzarini, Theor. Chem. Acc. 114, 283 (2005)

================================================================================
                                        WARNINGS
                       Please study these warnings very carefully!
================================================================================


WARNING: The frozen-core approximation for MP2-gradient calculations is turned on by default.

INFO   : the flag for use of LIBINT has been found!

----- Orbital basis set information -----
Your calculation utilizes the basis: aug-cc-pVTZ 
    H, B-Ne : Obtained from the ccRepo (grant-hill.group.shef.ac.uk/ccrepo) Feb. 2017
              R. A. Kendall, T. H. Dunning, Jr., R. J. Harrison, J. Chem. Phys. 96, 6796 (1992)
         He : Obtained from the ccRepo (grant-hill.group.shef.ac.uk/ccrepo) Feb. 2017
              D. E. Woon, T. H. Dunning, Jr., J. Chem. Phys. 100, 2975 (1994)
  Li-Be, Na : Obtained from the ccRepo (grant-hill.group.shef.ac.uk/ccrepo) Feb. 2017
              B. P. Prascher, D. E. Woon, K. A. Peterson, T. H. Dunning, Jr., A. K. Wilson, Theor. Chem. Acc. 128, 69 (2011)
         Mg : Obtained from the Peterson Research Group Website (tyr0.chem.wsu.edu/~kipeters) Feb. 2017
              B. P. Prascher, D. E. Woon, K. A. Peterson, T. H. Dunning, Jr., A. K. Wilson, Theor. Chem. Acc. 128, 69 (2011)
      Al-Ar : Obtained from the ccRepo (grant-hill.group.shef.ac.uk/ccrepo) Feb. 2017
              D. E. Woon, T. H. Dunning, Jr., J. Chem. Phys. 98, 1358 (1993)
      Sc-Zn : Obtained from the ccRepo (grant-hill.group.shef.ac.uk/ccrepo) Feb. 2017
              N. B. Balabanov, K. A. Peterson, J. Chem. Phys. 123, 064107 (2005)
              N. B. Balabanov, K. A. Peterson, J. Chem. Phys. 125, 074110 (2006)
      Ga-Kr : Obtained from the ccRepo (grant-hill.group.shef.ac.uk/ccrepo) Feb. 2017
              A. K. Wilson, D. E. Woon, K. A. Peterson, T. H. Dunning, Jr., J. Chem. Phys. 110, 7667 (1999)
     Ag, Au : Obtained from the Peterson Research Group Website (tyr0.chem.wsu.edu/~kipeters) Feb. 2017
              K. A. Peterson, C. Puzzarini, Theor. Chem. Acc. 114, 283 (2005)

================================================================================
                                        WARNINGS
                       Please study these warnings very carefully!
================================================================================


WARNING: The frozen-core approximation for MP2-gradient calculations is turned on by default.

INFO   : the flag for use of LIBINT has been found!

----- Orbital basis set information -----
Your calculation utilizes the basis: aug-cc-pVTZ 
    H, B-Ne : Obtained from the ccRepo (grant-hill.group.shef.ac.uk/ccrepo) Feb. 2017
              R. A. Kendall, T. H. Dunning, Jr., R. J. Harrison, J. Chem. Phys. 96, 6796 (1992)
         He : Obtained from the ccRepo (grant-hill.group.shef.ac.uk/ccrepo) Feb. 2017
              D. E. Woon, T. H. Dunning, Jr., J. Chem. Phys. 100, 2975 (1994)
  Li-Be, Na : Obtained from the ccRepo (grant-hill.group.shef.ac.uk/ccrepo) Feb. 2017
              B. P. Prascher, D. E. Woon, K. A. Peterson, T. H. Dunning, Jr., A. K. Wilson, Theor. Chem. Acc. 128, 69 (2011)
         Mg : Obtained from the Peterson Research Group Website (tyr0.chem.wsu.edu/~kipeters) Feb. 2017
              B. P. Prascher, D. E. Woon, K. A. Peterson, T. H. Dunning, Jr., A. K. Wilson, Theor. Chem. Acc. 128, 69 (2011)
      Al-Ar : Obtained from the ccRepo (grant-hill.group.shef.ac.uk/ccrepo) Feb. 2017
              D. E. Woon, T. H. Dunning, Jr., J. Chem. Phys. 98, 1358 (1993)
      Sc-Zn : Obtained from the ccRepo (grant-hill.group.shef.ac.uk/ccrepo) Feb. 2017
              N. B. Balabanov, K. A. Peterson, J. Chem. Phys. 123, 064107 (2005)
              N. B. Balabanov, K. A. Peterson, J. Chem. Phys. 125, 074110 (2006)
      Ga-Kr : Obtained from the ccRepo (grant-hill.group.shef.ac.uk/ccrepo) Feb. 2017
              A. K. Wilson, D. E. Woon, K. A. Peterson, T. H. Dunning, Jr., J. Chem. Phys. 110, 7667 (1999)
     Ag, Au : Obtained from the Peterson Research Group Website (tyr0.chem.wsu.edu/~kipeters) Feb. 2017
              K. A. Peterson, C. Puzzarini, Theor. Chem. Acc. 114, 283 (2005)

================================================================================
                                        WARNINGS
                       Please study these warnings very carefully!
================================================================================


WARNING: The frozen-core approximation for MP2-gradient calculations is turned on by default.

INFO   : the flag for use of LIBINT has been found!

----- Orbital basis set information -----
Your calculation utilizes the basis: aug-cc-pVTZ 
    H, B-Ne : Obtained from the ccRepo (grant-hill.group.shef.ac.uk/ccrepo) Feb. 2017
              R. A. Kendall, T. H. Dunning, Jr., R. J. Harrison, J. Chem. Phys. 96, 6796 (1992)
         He : Obtained from the ccRepo (grant-hill.group.shef.ac.uk/ccrepo) Feb. 2017
              D. E. Woon, T. H. Dunning, Jr., J. Chem. Phys. 100, 2975 (1994)
  Li-Be, Na : Obtained from the ccRepo (grant-hill.group.shef.ac.uk/ccrepo) Feb. 2017
              B. P. Prascher, D. E. Woon, K. A. Peterson, T. H. Dunning, Jr., A. K. Wilson, Theor. Chem. Acc. 128, 69 (2011)
         Mg : Obtained from the Peterson Research Group Website (tyr0.chem.wsu.edu/~kipeters) Feb. 2017
              B. P. Prascher, D. E. Woon, K. A. Peterson, T. H. Dunning, Jr., A. K. Wilson, Theor. Chem. Acc. 128, 69 (2011)
      Al-Ar : Obtained from the ccRepo (grant-hill.group.shef.ac.uk/ccrepo) Feb. 2017
              D. E. Woon, T. H. Dunning, Jr., J. Chem. Phys. 98, 1358 (1993)
      Sc-Zn : Obtained from the ccRepo (grant-hill.group.shef.ac.uk/ccrepo) Feb. 2017
              N. B. Balabanov, K. A. Peterson, J. Chem. Phys. 123, 064107 (2005)
              N. B. Balabanov, K. A. Peterson, J. Chem. Phys. 125, 074110 (2006)
      Ga-Kr : Obtained from the ccRepo (grant-hill.group.shef.ac.uk/ccrepo) Feb. 2017
              A. K. Wilson, D. E. Woon, K. A. Peterson, T. H. Dunning, Jr., J. Chem. Phys. 110, 7667 (1999)
     Ag, Au : Obtained from the Peterson Research Group Website (tyr0.chem.wsu.edu/~kipeters) Feb. 2017
              K. A. Peterson, C. Puzzarini, Theor. Chem. Acc. 114, 283 (2005)

================================================================================
                                        WARNINGS
                       Please study these warnings very carefully!
================================================================================


WARNING: The frozen-core approximation for MP2-gradient calculations is turned on by default.

INFO   : the flag for use of LIBINT has been found!

----- Orbital basis set information -----
Your calculation utilizes the basis: aug-cc-pVTZ 
    H, B-Ne : Obtained from the ccRepo (grant-hill.group.shef.ac.uk/ccrepo) Feb. 2017
              R. A. Kendall, T. H. Dunning, Jr., R. J. Harrison, J. Chem. Phys. 96, 6796 (1992)
         He : Obtained from the ccRepo (grant-hill.group.shef.ac.uk/ccrepo) Feb. 2017
              D. E. Woon, T. H. Dunning, Jr., J. Chem. Phys. 100, 2975 (1994)
  Li-Be, Na : Obtained from the ccRepo (grant-hill.group.shef.ac.uk/ccrepo) Feb. 2017
              B. P. Prascher, D. E. Woon, K. A. Peterson, T. H. Dunning, Jr., A. K. Wilson, Theor. Chem. Acc. 128, 69 (2011)
         Mg : Obtained from the Peterson Research Group Website (tyr0.chem.wsu.edu/~kipeters) Feb. 2017
              B. P. Prascher, D. E. Woon, K. A. Peterson, T. H. Dunning, Jr., A. K. Wilson, Theor. Chem. Acc. 128, 69 (2011)
      Al-Ar : Obtained from the ccRepo (grant-hill.group.shef.ac.uk/ccrepo) Feb. 2017
              D. E. Woon, T. H. Dunning, Jr., J. Chem. Phys. 98, 1358 (1993)
      Sc-Zn : Obtained from the ccRepo (grant-hill.group.shef.ac.uk/ccrepo) Feb. 2017
              N. B. Balabanov, K. A. Peterson, J. Chem. Phys. 123, 064107 (2005)
              N. B. Balabanov, K. A. Peterson, J. Chem. Phys. 125, 074110 (2006)
      Ga-Kr : Obtained from the ccRepo (grant-hill.group.shef.ac.uk/ccrepo) Feb. 2017
              A. K. Wilson, D. E. Woon, K. A. Peterson, T. H. Dunning, Jr., J. Chem. Phys. 110, 7667 (1999)
     Ag, Au : Obtained from the Peterson Research Group Website (tyr0.chem.wsu.edu/~kipeters) Feb. 2017
              K. A. Peterson, C. Puzzarini, Theor. Chem. Acc. 114, 283 (2005)

================================================================================
                                        WARNINGS
                       Please study these warnings very carefully!
================================================================================


WARNING: The frozen-core approximation for MP2-gradient calculations is turned on by default.

INFO   : the flag for use of LIBINT has been found!

----- Orbital basis set information -----
Your calculation utilizes the basis: aug-cc-pVTZ 
    H, B-Ne : Obtained from the ccRepo (grant-hill.group.shef.ac.uk/ccrepo) Feb. 2017
              R. A. Kendall, T. H. Dunning, Jr., R. J. Harrison, J. Chem. Phys. 96, 6796 (1992)
         He : Obtained from the ccRepo (grant-hill.group.shef.ac.uk/ccrepo) Feb. 2017
              D. E. Woon, T. H. Dunning, Jr., J. Chem. Phys. 100, 2975 (1994)
  Li-Be, Na : Obtained from the ccRepo (grant-hill.group.shef.ac.uk/ccrepo) Feb. 2017
              B. P. Prascher, D. E. Woon, K. A. Peterson, T. H. Dunning, Jr., A. K. Wilson, Theor. Chem. Acc. 128, 69 (2011)
         Mg : Obtained from the Peterson Research Group Website (tyr0.chem.wsu.edu/~kipeters) Feb. 2017
              B. P. Prascher, D. E. Woon, K. A. Peterson, T. H. Dunning, Jr., A. K. Wilson, Theor. Chem. Acc. 128, 69 (2011)
      Al-Ar : Obtained from the ccRepo (grant-hill.group.shef.ac.uk/ccrepo) Feb. 2017
              D. E. Woon, T. H. Dunning, Jr., J. Chem. Phys. 98, 1358 (1993)
      Sc-Zn : Obtained from the ccRepo (grant-hill.group.shef.ac.uk/ccrepo) Feb. 2017
              N. B. Balabanov, K. A. Peterson, J. Chem. Phys. 123, 064107 (2005)
              N. B. Balabanov, K. A. Peterson, J. Chem. Phys. 125, 074110 (2006)
      Ga-Kr : Obtained from the ccRepo (grant-hill.group.shef.ac.uk/ccrepo) Feb. 2017
              A. K. Wilson, D. E. Woon, K. A. Peterson, T. H. Dunning, Jr., J. Chem. Phys. 110, 7667 (1999)
     Ag, Au : Obtained from the Peterson Research Group Website (tyr0.chem.wsu.edu/~kipeters) Feb. 2017
              K. A. Peterson, C. Puzzarini, Theor. Chem. Acc. 114, 283 (2005)

================================================================================
                                        WARNINGS
                       Please study these warnings very carefully!
================================================================================


WARNING: The frozen-core approximation for MP2-gradient calculations is turned on by default.

INFO   : the flag for use of LIBINT has been found!

================================================================================
                                       INPUT FILE
================================================================================
NAME = 5h2o.temelso.etal-orca.engrad-mp2.augccpvtz.inp
|  1> # 5h2o.temelso.etal-orca.engrad-mp2.augccpvtz
|  2> ! MP2 aug-cc-pVTZ EnGrad TightSCF FrozenCore
|  3> 
|  4> %pal
|  5>     nprocs 24
|  6> end
|  7> 
|  8> %maxcore 8000
|  9> 
| 10> %scf
| 11>     ConvForced true
| 12> end
| 13> 
| 14> *xyz 0 1
| 15> O  -1.255930643  -1.929340235  -0.314275552
| 16> H  -1.796630643  -2.179540235  -1.073275552
| 17> H  -1.635730643  -1.072540235  -0.006475552
| 18> O  -2.212130643   0.494459765   0.494024448
| 19> H  -1.491830643   1.164759765   0.557024448
| 20> H  -2.693330643   0.565959765   1.326824448
| 21> O  -0.106530643   2.253359765   0.597324448
| 22> H   0.138569357   2.692659765   1.420624448
| 23> H   0.716569357   1.790059765   0.311024448
| 24> O   2.131969357   0.892159765  -0.169275552
| 25> H   1.923669357  -0.057640235  -0.336375552
| 26> H   2.580369357   1.187959765  -0.970975552
| 27> O   1.439769357  -1.701240235  -0.642875552
| 28> H   0.466269357  -1.825840235  -0.541575552
| 29> H   1.837369357  -2.415040235  -0.129975552
| 30> *
| 31> 
| 32> 
| 33> $new_job
| 34> 
| 35> # 5h2o.temelso.etal-orca.engrad-mp2.augccpvtz
| 36> ! MP2 aug-cc-pVTZ EnGrad TightSCF FrozenCore
| 37> 
| 38> %pal
| 39>     nprocs 24
| 40> end
| 41> 
| 42> %maxcore 8000
| 43> 
| 44> %scf
| 45>     ConvForced true
| 46> end
| 47> 
| 48> *xyz 0 1
| 49> O  -1.382005168   0.607803273   0.955104102
| 50> H  -1.514805168  -0.190496727   0.385704102
| 51> H  -2.108705168   0.593203273   1.589204102
| 52> O  -1.458205168  -1.614796727  -0.601295898
| 53> H  -0.507805168  -1.877996727  -0.631195898
| 54> H  -1.708205168  -1.512096727  -1.528095898
| 55> O   1.246194832  -1.984996727  -0.674895898
| 56> H   1.749194832  -2.673096727  -0.222995898
| 57> H   1.498094832  -1.143196727  -0.225295898
| 58> O   1.550194832   0.374603273   0.675204102
| 59> H   1.401894832   1.178703273   0.142704102
| 60> H   0.723694832   0.339603273   1.185604102
| 61> O   0.103894832   2.599803273  -0.402995898
| 62> H   0.109094832   3.466503273   0.021504102
| 63> H  -0.596105168   2.098003273   0.058804102
| 64> *
| 65> 
| 66> 
| 67> $new_job
| 68> 
| 69> # 5h2o.temelso.etal-orca.engrad-mp2.augccpvtz
| 70> ! MP2 aug-cc-pVTZ EnGrad TightSCF FrozenCore
| 71> 
| 72> %pal
| 73>     nprocs 24
| 74> end
| 75> 
| 76> %maxcore 8000
| 77> 
| 78> %scf
| 79>     ConvForced true
| 80> end
| 81> 
| 82> *xyz 0 1
| 83> O  -0.004202283   0.081625942   2.104272124
| 84> H   0.801497717  -0.057574058   1.577572124
| 85> H  -0.217302283   1.005025942   1.896072124
| 86> O   1.743697717   0.112225942  -0.276727876
| 87> H   1.325097717  -0.627774058  -0.784227876
| 88> H   2.660697717   0.142925942  -0.575127876
| 89> O  -1.755102283  -0.516574058  -0.107127876
| 90> H  -1.315402283  -0.531774058   0.766572124
| 91> H  -1.650302283   0.419325942  -0.350327876
| 92> O  -0.305402283   2.024025942  -0.139127876
| 93> H  -0.221002283   2.875225942  -0.585527876
| 94> H   0.515997717   1.534325942  -0.349327876
| 95> O   0.223697717  -1.745674058  -1.531927876
| 96> H  -0.597702283  -1.382574058  -1.116227876
| 97> H   0.243197717  -2.672774058  -1.263027876
| 98> *
| 99> 
|100> 
|101> $new_job
|102> 
|103> # 5h2o.temelso.etal-orca.engrad-mp2.augccpvtz
|104> ! MP2 aug-cc-pVTZ EnGrad TightSCF FrozenCore
|105> 
|106> %pal
|107>     nprocs 24
|108> end
|109> 
|110> %maxcore 8000
|111> 
|112> %scf
|113>     ConvForced true
|114> end
|115> 
|116> *xyz 0 1
|117> O   0.059595236  -2.073611296  -0.309397414
|118> H  -0.057004764  -1.864511296   0.638502586
|119> H   0.013195236  -3.035511296  -0.372097414
|120> O  -0.157504764  -0.436211296   1.910402586
|121> H   0.604195236   0.001488704   1.451802586
|122> H   0.013995236  -0.347411296   2.855402586
|123> O   1.762695236   0.372988704   0.190602586
|124> H   1.650895236  -0.449511296  -0.311697414
|125> H   1.338595236   1.047388704  -0.383597414
|126> O   0.120895236   2.031388704  -1.338197414
|127> H  -0.665804764   1.487788704  -1.108497414
|128> H   0.120895236   2.080388704  -2.301797414
|129> O  -1.787504764   0.200188704  -0.468297414
|130> H  -1.641104764   0.205788704   0.492802586
|131> H  -1.348904764  -0.629911296  -0.724497414
|132> *
|133> 
|134> 
|135> $new_job
|136> 
|137> # 5h2o.temelso.etal-orca.engrad-mp2.augccpvtz
|138> ! MP2 aug-cc-pVTZ EnGrad TightSCF FrozenCore
|139> 
|140> %pal
|141>     nprocs 24
|142> end
|143> 
|144> %maxcore 8000
|145> 
|146> %scf
|147>     ConvForced true
|148> end
|149> 
|150> *xyz 0 1
|151> O   1.842633852  -0.214450291  -0.134871974
|152> H   1.341333852  -0.880850291  -0.658371974
|153> H   2.760533852  -0.303550291  -0.418871974
|154> O   0.054533852  -1.911950291  -1.369671974
|155> H  -0.733766148  -1.422550291  -1.048371974
|156> H  -0.032466148  -2.789650291  -0.976771974
|157> O  -1.806966148  -0.274650291  -0.128171974
|158> H  -2.729166148  -0.419850291   0.115528026
|159> H  -1.316066148  -0.165650291   0.724128026
|160> O  -0.143466148   0.348849709   1.939928026
|161> H  -0.085466148   1.237649709   1.539128026
|162> H   0.692033852  -0.044050291   1.633128026
|163> O   0.054433852   2.152449709  -0.295871974
|164> H  -0.710266148   1.654249709  -0.625171974
|165> H   0.794733852   1.542849709  -0.464371974
|166> *
|167> 
|168> 
|169> $new_job
|170> 
|171> # 5h2o.temelso.etal-orca.engrad-mp2.augccpvtz
|172> ! MP2 aug-cc-pVTZ EnGrad TightSCF FrozenCore
|173> 
|174> %pal
|175>     nprocs 24
|176> end
|177> 
|178> %maxcore 8000
|179> 
|180> %scf
|181>     ConvForced true
|182> end
|183> 
|184> *xyz 0 1
|185> O   1.480055497  -1.699467762  -0.557907291
|186> H   0.512555497  -1.868967762  -0.546707291
|187> H   1.683855497  -1.544867762  -1.489007291
|188> O  -1.296044503  -1.919267762  -0.364807291
|189> H  -1.514844503  -1.060567762   0.052792709
|190> H  -1.606844503  -2.582267762   0.264492709
|191> O  -1.408844503   0.611432238   0.875292709
|192> H  -1.888744503   0.840432238   1.680792709
|193> H  -0.446444503   0.576132238   1.128992709
|194> O   1.261555497   0.624032238   1.004492709
|195> H   1.245955497   1.310332238   0.313392709
|196> H   1.502855497  -0.191767762   0.514492709
|197> O   0.045355497   2.339432238  -0.990207291
|198> H  -0.069144503   3.286632238  -0.841807291
|199> H  -0.722144503   1.930832238  -0.551407291
|200> *
|201> 
|202> 
|203> $new_job
|204> 
|205> # 5h2o.temelso.etal-orca.engrad-mp2.augccpvtz
|206> ! MP2 aug-cc-pVTZ EnGrad TightSCF FrozenCore
|207> 
|208> %pal
|209>     nprocs 24
|210> end
|211> 
|212> %maxcore 8000
|213> 
|214> %scf
|215>     ConvForced true
|216> end
|217> 
|218> *xyz 0 1
|219> O   1.347645749  -1.944003820  -0.062507012
|220> H   0.397445749  -2.040603820  -0.284707012
|221> H   1.551145749  -2.713303820   0.483192988
|222> O  -1.452154251  -1.885403820  -0.455707012
|223> H  -1.604954251  -0.944403820  -0.230307012
|224> H  -2.020454251  -2.371103820   0.154592988
|225> O  -1.450254251   0.795796180   0.441792988
|226> H  -2.010954251   1.157296180   1.139292988
|227> H  -0.547154251   0.684196180   0.848692988
|228> O   1.136245749   0.604296180   1.069692988
|229> H   1.329245749   1.235996180   0.353092988
|230> H   1.379745749  -0.273303820   0.704292988
|231> O   0.509545749   2.420196180  -1.085207012
|232> H   0.441545749   3.356696180  -0.859507012
|233> H  -0.360654251   2.053296180  -0.849207012
|234> *
|235> 
|236>                          ****END OF INPUT****
================================================================================


                 $$$$$$$$$$$$$$$$$$$$$$$$$$$$$$$$$$$$$$$$$$$$$$ 
                 $ THERE ARE  7 JOBS TO BE PROCESSED THIS RUN $
                 $$$$$$$$$$$$$$$$$$$$$$$$$$$$$$$$$$$$$$$$$$$$$$ 




                 $$$$$$$$$$$$$$$$  JOB NUMBER  1 $$$$$$$$$$$$$$


                     *******************************
                     * Energy+Gradient Calculation *
                     *******************************

---------------------------------
CARTESIAN COORDINATES (ANGSTROEM)
---------------------------------
  O     -1.255931   -1.929340   -0.314276
  H     -1.796631   -2.179540   -1.073276
  H     -1.635731   -1.072540   -0.006476
  O     -2.212131    0.494460    0.494024
  H     -1.491831    1.164760    0.557024
  H     -2.693331    0.565960    1.326824
  O     -0.106531    2.253360    0.597324
  H      0.138569    2.692660    1.420624
  H      0.716569    1.790060    0.311024
  O      2.131969    0.892160   -0.169276
  H      1.923669   -0.057640   -0.336376
  H      2.580369    1.187960   -0.970976
  O      1.439769   -1.701240   -0.642876
  H      0.466269   -1.825840   -0.541576
  H      1.837369   -2.415040   -0.129976

----------------------------
CARTESIAN COORDINATES (A.U.)
----------------------------
  NO LB      ZA    FRAG     MASS         X           Y           Z
   0 O     8.0000    0    15.999   -2.373365   -3.645925   -0.593895
   1 H     1.0000    0     1.008   -3.395140   -4.118734   -2.028197
   2 H     1.0000    0     1.008   -3.091083   -2.026807   -0.012237
   3 O     8.0000    0    15.999   -4.180321    0.934394    0.933571
   4 H     1.0000    0     1.008   -2.819151    2.201077    1.052624
   5 H     1.0000    0     1.008   -5.089657    1.069509    2.507335
   6 O     8.0000    0    15.999   -0.201314    4.258233    1.128780
   7 H     1.0000    0     1.008    0.261858    5.088390    2.684591
   8 H     1.0000    0     1.008    1.354120    3.382723    0.587751
   9 O     8.0000    0    15.999    4.028838    1.685938   -0.319884
  10 H     1.0000    0     1.008    3.635208   -0.108924   -0.635658
  11 H     1.0000    0     1.008    4.876191    2.244919   -1.834878
  12 O     8.0000    0    15.999    2.720770   -3.214878   -1.214859
  13 H     1.0000    0     1.008    0.881121   -3.450338   -1.023429
  14 H     1.0000    0     1.008    3.472125   -4.563765   -0.245618

--------------------------------
INTERNAL COORDINATES (ANGSTROEM)
--------------------------------
 O      0   0   0     0.000000000000     0.00000000     0.00000000
 H      1   0   0     0.964902860396     0.00000000     0.00000000
 H      1   2   0     0.986455837836   104.76835687     0.00000000
 O      3   1   2     1.743050834026   176.15690214   252.64319083
 H      4   3   1     0.985952929911   112.82674814   339.65093376
 H      4   3   1     0.964479927215   118.65722273   216.27223233
 O      5   4   3     1.762308185307   174.67674486     9.54303746
 H      7   5   4     0.964821947304   120.03040098   230.24944258
 H      7   5   4     0.986969194048   111.03631430   352.32005280
 O      9   7   5     1.743636906010   176.97797036   335.45834896
 H     10   9   7     0.986626241289   111.77794074    21.53600843
 H     10   9   7     0.965030097976   116.62650034   141.82974570
 O     11  10   9     1.740552331876   176.00593034    19.40371924
 H     13  11  10     0.986655512324   112.05395988   344.06586307
 H     13  11  10     0.964708562209   119.37298116   220.82032443

---------------------------
INTERNAL COORDINATES (A.U.)
---------------------------
 O      0   0   0     0.000000000000     0.00000000     0.00000000
 H      1   0   0     1.823402151985     0.00000000     0.00000000
 H      1   2   0     1.864131376717   104.76835687     0.00000000
 O      3   1   2     3.293888713813   176.15690214   252.64319083
 H      4   3   1     1.863181018469   112.82674814   339.65093376
 H      4   3   1     1.822602924100   118.65722273   216.27223233
 O      5   4   3     3.330279833798   174.67674486     9.54303746
 H      7   5   4     1.823249248402   120.03040098   230.24944258
 H      7   5   4     1.865101479368   111.03631430   352.32005280
 O      9   7   5     3.294996229357   176.97797036   335.45834896
 H     10   9   7     1.864453392576   111.77794074    21.53600843
 H     10   9   7     1.823642596166   116.62650034   141.82974570
 O     11  10   9     3.289167229004   176.00593034    19.40371924
 H     13  11  10     1.864508706817   112.05395988   344.06586307
 H     13  11  10     1.823034981625   119.37298116   220.82032443

---------------------
BASIS SET INFORMATION
---------------------
There are 2 groups of distinct atoms

 Group   1 Type O   : 19s6p3d2f contracted to 5s4p3d2f pattern {88111/3111/111/11}
 Group   2 Type H   : 6s3p2d contracted to 4s3p2d pattern {3111/111/11}

Atom   0O    basis set group =>   1
Atom   1H    basis set group =>   2
Atom   2H    basis set group =>   2
Atom   3O    basis set group =>   1
Atom   4H    basis set group =>   2
Atom   5H    basis set group =>   2
Atom   6O    basis set group =>   1
Atom   7H    basis set group =>   2
Atom   8H    basis set group =>   2
Atom   9O    basis set group =>   1
Atom  10H    basis set group =>   2
Atom  11H    basis set group =>   2
Atom  12O    basis set group =>   1
Atom  13H    basis set group =>   2
Atom  14H    basis set group =>   2


           ************************************************************
           *        Program running with 24 parallel MPI-processes    *
           *              working on a common directory               *
           ************************************************************
------------------------------------------------------------------------------
                           ORCA GTO INTEGRAL CALCULATION
------------------------------------------------------------------------------

                         BASIS SET STATISTICS AND STARTUP INFO

 # of primitive gaussian shells          ...  260
 # of primitive gaussian functions       ...  580
 # of contracted shells                  ...  160
 # of contracted basis functions         ...  460
 Highest angular momentum                ...    3
 Maximum contraction depth               ...    8
 Integral package used                   ... LIBINT
 Integral threshhold            Thresh   ...  2.500e-11
 Primitive cut-off              TCut     ...  2.500e-12


------------------------------ INTEGRAL EVALUATION ----------------------------


 * One electron integrals 
 Pre-screening matrix                    ... done
 Shell pair data                         ... done (   0.003 sec)



           ************************************************************
           *        Program running with 24 parallel MPI-processes    *
           *              working on a common directory               *
           ************************************************************
-------------------------------------------------------------------------------
                                 ORCA SCF
-------------------------------------------------------------------------------

------------
SCF SETTINGS
------------
Hamiltonian:
 Ab initio Hamiltonian  Method          .... Hartree-Fock(GTOs)


General Settings:
 Integral files         IntName         .... 5h2o.temelso.etal-orca.engrad-mp2.augccpvtz
 Hartree-Fock type      HFTyp           .... RHF
 Total Charge           Charge          ....    0
 Multiplicity           Mult            ....    1
 Number of Electrons    NEL             ....   50
 Basis Dimension        Dim             ....  460
 Nuclear Repulsion      ENuc            ....    202.3644424021 Eh

Convergence Acceleration:
 DIIS                   CNVDIIS         .... on
   Start iteration      DIISMaxIt       ....    12
   Startup error        DIISStart       ....  0.200000
   # of expansion vecs  DIISMaxEq       ....     5
   Bias factor          DIISBfac        ....   1.050
   Max. coefficient     DIISMaxC        ....  10.000
 Newton-Raphson         CNVNR           .... off
 SOSCF                  CNVSOSCF        .... on
   Start iteration      SOSCFMaxIt      ....   150
   Startup grad/error   SOSCFStart      ....  0.003300
 Level Shifting         CNVShift        .... on
   Level shift para.    LevelShift      ....    0.2500
   Turn off err/grad.   ShiftErr        ....    0.0010
 Zerner damping         CNVZerner       .... off
 Static damping         CNVDamp         .... on
   Fraction old density DampFac         ....    0.7000
   Max. Damping (<1)    DampMax         ....    0.9800
   Min. Damping (>=0)   DampMin         ....    0.0000
   Turn off err/grad.   DampErr         ....    0.1000
 Fernandez-Rico         CNVRico         .... off

SCF Procedure:
 Maximum # iterations   MaxIter         ....   125
 SCF integral mode      SCFMode         .... Direct
   Integral package                     .... LIBINT
 Reset frequency        DirectResetFreq ....    20
 Integral Threshold     Thresh          ....  2.500e-11 Eh
 Primitive CutOff       TCut            ....  2.500e-12 Eh

Convergence Tolerance:
 Convergence Check Mode ConvCheckMode   .... Total+1el-Energy
 Convergence forced     ConvForced      .... 1
 Energy Change          TolE            ....  1.000e-08 Eh
 1-El. energy change                    ....  1.000e-05 Eh
 Orbital Gradient       TolG            ....  1.000e-05
 Orbital Rotation angle TolX            ....  1.000e-05
 DIIS Error             TolErr          ....  5.000e-07


Diagonalization of the overlap matrix:
Smallest eigenvalue                        ... 1.158e-04
Time for diagonalization                   ...    0.029 sec
Threshold for overlap eigenvalues          ... 1.000e-08
Number of eigenvalues below threshold      ... 0
Time for construction of square roots      ...    0.019 sec
Total time needed                          ...    0.049 sec

-------------------
DFT GRID GENERATION
-------------------

General Integration Accuracy     IntAcc      ...  4.340
Radial Grid Type                 RadialGrid  ... Gauss-Chebyshev
Angular Grid (max. acc.)         AngularGrid ... Lebedev-110
Angular grid pruning method      GridPruning ... 3 (G Style)
Weight generation scheme         WeightScheme... Becke
Basis function cutoff            BFCut       ...    1.0000e-11
Integration weight cutoff        WCut        ...    1.0000e-14
Grids for H and He will be reduced by one unit

# of grid points (after initial pruning)     ...  16520 (   0.0 sec)
# of grid points (after weights+screening)   ...  15710 (   0.0 sec)
nearest neighbour list constructed           ...    0.0 sec
Grid point re-assignment to atoms done       ...    0.0 sec
Grid point division into batches done        ...    0.0 sec
Reduced shell lists constructed in    0.0 sec

Total number of grid points                  ...    15710
Total number of batches                      ...      254
Average number of points per batch           ...       61
Average number of grid points per atom       ...     1047
Average number of shells per batch           ...   104.75 (65.47%)
Average number of basis functions per batch  ...   291.75 (63.42%)
Average number of large shells per batch     ...    85.17 (81.30%)
Average number of large basis fcns per batch ...   228.67 (78.38%)
Maximum spatial batch extension              ...  12.49, 14.34, 12.63 au
Average spatial batch extension              ...   0.13,  0.15,  0.14 au

Time for grid setup =    0.034 sec

------------------------------
INITIAL GUESS: MODEL POTENTIAL
------------------------------
Loading Hartree-Fock densities                     ... done
Calculating cut-offs                               ... done
Setting up the integral package                    ... done
Initializing the effective Hamiltonian             ... done
Starting the Coulomb interaction                   ... done (   0.0 sec)
Reading the grid                                   ... done
Mapping shells                                     ... done
Starting the XC term evaluation                    ... done (   0.0 sec)
Transforming the Hamiltonian                       ... done (   0.0 sec)
Diagonalizing the Hamiltonian                      ... done (   0.0 sec)
Back transforming the eigenvectors                 ... done (   0.0 sec)
Now organizing SCF variables                       ... done
                      ------------------
                      INITIAL GUESS DONE (   0.2 sec)
                      ------------------
--------------
SCF ITERATIONS
--------------
ITER       Energy         Delta-E        Max-DP      RMS-DP      [F,P]     Damp
               ***  Starting incremental Fock matrix formation  ***
  0   -379.9164734518   0.000000000000 0.02571552  0.00045249  0.3561980 0.7000
  1   -380.0805508996  -0.164077447717 0.01719405  0.00032117  0.2120589 0.7000
                               ***Turning on DIIS***
  2   -380.1680432130  -0.087492313472 0.01195862  0.00019469  0.1157862 0.7000
  3   -380.9059552468  -0.737912033752 0.03540107  0.00042273  0.0841507 0.0000
  4   -380.2155737800   0.690381466802 0.00457132  0.00006153  0.0119537 0.0000
                      *** Initiating the SOSCF procedure ***
                           *** Shutting down DIIS ***
                      *** Re-Reading the Fockian *** 
                      *** Removing any level shift *** 
ITER      Energy       Delta-E        Grad      Rot      Max-DP    RMS-DP
  5   -380.32873281  -0.1131590254  0.001005  0.001005  0.001746  0.000028
               *** Restarting incremental Fock matrix formation ***
  6   -380.33772878  -0.0089959772  0.000342  0.000405  0.000937  0.000013
  7   -380.33775340  -0.0000246208  0.000181  0.000373  0.000977  0.000012
  8   -380.33775912  -0.0000057119  0.000078  0.000040  0.000226  0.000003
  9   -380.33775954  -0.0000004201  0.000013  0.000012  0.000017  0.000000
                  ***Gradient check signals convergence***
              ***Rediagonalizing the Fockian in SOSCF/NRSCF***

               *****************************************************
               *                     SUCCESS                       *
               *           SCF CONVERGED AFTER  10 CYCLES          *
               *****************************************************


----------------
TOTAL SCF ENERGY
----------------

Total Energy       :         -380.33775955 Eh          -10349.51660 eV

Components:
Nuclear Repulsion  :          202.36444240 Eh            5506.61643 eV
Electronic Energy  :         -582.70220196 Eh          -15856.13303 eV
One Electron Energy:         -928.44931308 Eh          -25264.39023 eV
Two Electron Energy:          345.74711112 Eh            9408.25720 eV

Virial components:
Potential Energy   :         -760.05901574 Eh          -20682.25728 eV
Kinetic Energy     :          379.72125618 Eh           10332.74069 eV
Virial Ratio       :            2.00162357


---------------
SCF CONVERGENCE
---------------

  Last Energy change         ...   -1.8453e-08  Tolerance :   1.0000e-08
  Last MAX-Density change    ...    5.9041e-06  Tolerance :   1.0000e-07
  Last RMS-Density change    ...    1.2321e-07  Tolerance :   5.0000e-09
  Last Orbital Gradient      ...    2.2712e-06  Tolerance :   1.0000e-05
  Last Orbital Rotation      ...    3.9616e-06  Tolerance :   1.0000e-05

             **** THE GBW FILE WAS UPDATED (5h2o.temelso.etal-orca.engrad-mp2.augccpvtz.gbw) ****
             **** DENSITY FILE WAS UPDATED (5h2o.temelso.etal-orca.engrad-mp2.augccpvtz.scfp) ****
             **** ENERGY FILE WAS UPDATED (5h2o.temelso.etal-orca.engrad-mp2.augccpvtz.en.tmp) ****
             **** THE GBW FILE WAS UPDATED (5h2o.temelso.etal-orca.engrad-mp2.augccpvtz.gbw) ****
             **** DENSITY FILE WAS UPDATED (5h2o.temelso.etal-orca.engrad-mp2.augccpvtz.scfp) ****
----------------
ORBITAL ENERGIES
----------------

  NO   OCC          E(Eh)            E(eV) 
   0   2.0000     -20.557516      -559.3985 
   1   2.0000     -20.556219      -559.3632 
   2   2.0000     -20.555795      -559.3516 
   3   2.0000     -20.555466      -559.3427 
   4   2.0000     -20.555268      -559.3373 
   5   2.0000      -1.356936       -36.9241 
   6   2.0000      -1.346668       -36.6447 
   7   2.0000      -1.345963       -36.6255 
   8   2.0000      -1.329021       -36.1645 
   9   2.0000      -1.327945       -36.1352 
  10   2.0000      -0.718098       -19.5404 
  11   2.0000      -0.713960       -19.4278 
  12   2.0000      -0.712311       -19.3830 
  13   2.0000      -0.711080       -19.3495 
  14   2.0000      -0.709343       -19.3022 
  15   2.0000      -0.618008       -16.8169 
  16   2.0000      -0.614624       -16.7248 
  17   2.0000      -0.572714       -15.5843 
  18   2.0000      -0.569140       -15.4871 
  19   2.0000      -0.542524       -14.7628 
  20   2.0000      -0.506643       -13.7865 
  21   2.0000      -0.503143       -13.6912 
  22   2.0000      -0.502181       -13.6650 
  23   2.0000      -0.499431       -13.5902 
  24   2.0000      -0.497461       -13.5366 
  25   0.0000       0.026786         0.7289 
  26   0.0000       0.037692         1.0257 
  27   0.0000       0.040055         1.0899 
  28   0.0000       0.048483         1.3193 
  29   0.0000       0.055498         1.5102 
  30   0.0000       0.069479         1.8906 
  31   0.0000       0.075211         2.0466 
  32   0.0000       0.080876         2.2007 
  33   0.0000       0.086830         2.3628 
  34   0.0000       0.097393         2.6502 
  35   0.0000       0.136645         3.7183 
  36   0.0000       0.148503         4.0410 
  37   0.0000       0.152881         4.1601 
  38   0.0000       0.156334         4.2541 
  39   0.0000       0.163982         4.4622 
  40   0.0000       0.172627         4.6974 
  41   0.0000       0.174224         4.7409 
  42   0.0000       0.178187         4.8487 
  43   0.0000       0.188914         5.1406 
  44   0.0000       0.191511         5.2113 
  45   0.0000       0.207695         5.6517 
  46   0.0000       0.215851         5.8736 
  47   0.0000       0.218476         5.9450 
  48   0.0000       0.219266         5.9665 
  49   0.0000       0.224480         6.1084 
  50   0.0000       0.234645         6.3850 
  51   0.0000       0.249272         6.7830 
  52   0.0000       0.254608         6.9282 
  53   0.0000       0.266048         7.2395 
  54   0.0000       0.269944         7.3456 
  55   0.0000       0.280216         7.6251 
  56   0.0000       0.284167         7.7326 
  57   0.0000       0.290931         7.9166 
  58   0.0000       0.298006         8.1092 
  59   0.0000       0.301385         8.2011 
  60   0.0000       0.306264         8.3339 
  61   0.0000       0.333225         9.0675 
  62   0.0000       0.364215         9.9108 
  63   0.0000       0.368556        10.0289 
  64   0.0000       0.382340        10.4040 
  65   0.0000       0.385441        10.4884 
  66   0.0000       0.387909        10.5555 
  67   0.0000       0.395598        10.7648 
  68   0.0000       0.396289        10.7836 
  69   0.0000       0.399361        10.8672 
  70   0.0000       0.413495        11.2518 
  71   0.0000       0.414543        11.2803 
  72   0.0000       0.425927        11.5901 
  73   0.0000       0.431617        11.7449 
  74   0.0000       0.431675        11.7465 
  75   0.0000       0.437597        11.9076 
  76   0.0000       0.440318        11.9817 
  77   0.0000       0.447751        12.1839 
  78   0.0000       0.449080        12.2201 
  79   0.0000       0.460063        12.5190 
  80   0.0000       0.467371        12.7178 
  81   0.0000       0.469357        12.7719 
  82   0.0000       0.487948        13.2777 
  83   0.0000       0.493233        13.4215 
  84   0.0000       0.497946        13.5498 
  85   0.0000       0.500110        13.6087 
  86   0.0000       0.505698        13.7607 
  87   0.0000       0.507238        13.8026 
  88   0.0000       0.512591        13.9483 
  89   0.0000       0.517659        14.0862 
  90   0.0000       0.570367        15.5205 
  91   0.0000       0.577581        15.7168 
  92   0.0000       0.587573        15.9887 
  93   0.0000       0.598688        16.2911 
  94   0.0000       0.601539        16.3687 
  95   0.0000       0.611882        16.6502 
  96   0.0000       0.647714        17.6252 
  97   0.0000       0.666740        18.1429 
  98   0.0000       0.677430        18.4338 
  99   0.0000       0.701280        19.0828 
 100   0.0000       0.717039        19.5116 
 101   0.0000       0.720420        19.6036 
 102   0.0000       0.729818        19.8593 
 103   0.0000       0.730959        19.8904 
 104   0.0000       0.768687        20.9170 
 105   0.0000       0.770441        20.9648 
 106   0.0000       0.783523        21.3208 
 107   0.0000       0.794684        21.6245 
 108   0.0000       0.796816        21.6825 
 109   0.0000       0.805739        21.9253 
 110   0.0000       0.811105        22.0713 
 111   0.0000       0.817104        22.2345 
 112   0.0000       0.838176        22.8079 
 113   0.0000       0.838698        22.8221 
 114   0.0000       0.850857        23.1530 
 115   0.0000       0.865885        23.5619 
 116   0.0000       0.873528        23.7699 
 117   0.0000       0.885572        24.0976 
 118   0.0000       0.889279        24.1985 
 119   0.0000       0.896530        24.3958 
 120   0.0000       0.908380        24.7183 
 121   0.0000       0.910056        24.7639 
 122   0.0000       0.916189        24.9308 
 123   0.0000       0.925543        25.1853 
 124   0.0000       0.928215        25.2580 
 125   0.0000       0.939208        25.5571 
 126   0.0000       0.957957        26.0673 
 127   0.0000       0.964525        26.2461 
 128   0.0000       0.966376        26.2964 
 129   0.0000       0.977309        26.5939 
 130   0.0000       0.981917        26.7193 
 131   0.0000       0.992237        27.0001 
 132   0.0000       0.997785        27.1511 
 133   0.0000       0.999936        27.2096 
 134   0.0000       1.007311        27.4103 
 135   0.0000       1.014416        27.6037 
 136   0.0000       1.022487        27.8233 
 137   0.0000       1.024344        27.8738 
 138   0.0000       1.030064        28.0295 
 139   0.0000       1.043631        28.3986 
 140   0.0000       1.048355        28.5272 
 141   0.0000       1.055876        28.7318 
 142   0.0000       1.056955        28.7612 
 143   0.0000       1.062704        28.9177 
 144   0.0000       1.067651        29.0523 
 145   0.0000       1.093166        29.7466 
 146   0.0000       1.100078        29.9347 
 147   0.0000       1.108929        30.1755 
 148   0.0000       1.127833        30.6899 
 149   0.0000       1.129027        30.7224 
 150   0.0000       1.164867        31.6976 
 151   0.0000       1.165393        31.7120 
 152   0.0000       1.171790        31.8860 
 153   0.0000       1.186970        32.2991 
 154   0.0000       1.190511        32.3955 
 155   0.0000       1.207586        32.8601 
 156   0.0000       1.210332        32.9348 
 157   0.0000       1.220931        33.2232 
 158   0.0000       1.239761        33.7356 
 159   0.0000       1.243059        33.8253 
 160   0.0000       1.248956        33.9858 
 161   0.0000       1.251087        34.0438 
 162   0.0000       1.261201        34.3190 
 163   0.0000       1.271917        34.6106 
 164   0.0000       1.280836        34.8533 
 165   0.0000       1.293504        35.1980 
 166   0.0000       1.296313        35.2745 
 167   0.0000       1.302759        35.4499 
 168   0.0000       1.327693        36.1284 
 169   0.0000       1.334290        36.3079 
 170   0.0000       1.357211        36.9316 
 171   0.0000       1.379401        37.5354 
 172   0.0000       1.382574        37.6217 
 173   0.0000       1.396299        37.9952 
 174   0.0000       1.413732        38.4696 
 175   0.0000       1.422646        38.7122 
 176   0.0000       1.443214        39.2719 
 177   0.0000       1.450759        39.4772 
 178   0.0000       1.453467        39.5508 
 179   0.0000       1.466098        39.8946 
 180   0.0000       1.506857        41.0037 
 181   0.0000       1.523223        41.4490 
 182   0.0000       1.532153        41.6920 
 183   0.0000       1.537796        41.8455 
 184   0.0000       1.555686        42.3324 
 185   0.0000       1.565158        42.5901 
 186   0.0000       1.575781        42.8792 
 187   0.0000       1.586437        43.1691 
 188   0.0000       1.592515        43.3345 
 189   0.0000       1.599360        43.5208 
 190   0.0000       1.624360        44.2011 
 191   0.0000       1.631871        44.4055 
 192   0.0000       1.638483        44.5854 
 193   0.0000       1.663978        45.2791 
 194   0.0000       1.688864        45.9563 
 195   0.0000       1.717187        46.7270 
 196   0.0000       1.726567        46.9823 
 197   0.0000       1.735765        47.2326 
 198   0.0000       1.748460        47.5780 
 199   0.0000       1.763717        47.9932 
 200   0.0000       1.782330        48.4997 
 201   0.0000       1.790222        48.7144 
 202   0.0000       1.803304        49.0704 
 203   0.0000       1.817522        49.4573 
 204   0.0000       1.823329        49.6153 
 205   0.0000       1.835596        49.9491 
 206   0.0000       1.846654        50.2500 
 207   0.0000       1.860765        50.6340 
 208   0.0000       1.871987        50.9393 
 209   0.0000       1.900761        51.7223 
 210   0.0000       1.919228        52.2248 
 211   0.0000       1.941601        52.8337 
 212   0.0000       1.964290        53.4511 
 213   0.0000       1.994304        54.2678 
 214   0.0000       2.002999        54.5044 
 215   0.0000       2.020428        54.9786 
 216   0.0000       2.021226        55.0004 
 217   0.0000       2.039770        55.5050 
 218   0.0000       2.076898        56.5153 
 219   0.0000       2.088472        56.8302 
 220   0.0000       2.150886        58.5286 
 221   0.0000       2.153391        58.5968 
 222   0.0000       2.161244        58.8104 
 223   0.0000       2.228873        60.6507 
 224   0.0000       2.239674        60.9446 
 225   0.0000       2.298319        62.5404 
 226   0.0000       2.371929        64.5435 
 227   0.0000       2.393724        65.1365 
 228   0.0000       2.401603        65.3509 
 229   0.0000       2.404322        65.4249 
 230   0.0000       2.411706        65.6259 
 231   0.0000       2.423442        65.9452 
 232   0.0000       2.433351        66.2149 
 233   0.0000       2.463088        67.0240 
 234   0.0000       2.492311        67.8192 
 235   0.0000       2.501128        68.0592 
 236   0.0000       2.507935        68.2444 
 237   0.0000       2.527004        68.7633 
 238   0.0000       2.529399        68.8285 
 239   0.0000       2.544483        69.2389 
 240   0.0000       2.554645        69.5154 
 241   0.0000       2.560837        69.6839 
 242   0.0000       2.568795        69.9005 
 243   0.0000       2.577547        70.1386 
 244   0.0000       2.600810        70.7716 
 245   0.0000       2.611058        71.0505 
 246   0.0000       2.613135        71.1070 
 247   0.0000       2.617745        71.2325 
 248   0.0000       2.636444        71.7413 
 249   0.0000       2.658194        72.3331 
 250   0.0000       2.674216        72.7691 
 251   0.0000       2.684971        73.0618 
 252   0.0000       2.693119        73.2835 
 253   0.0000       2.700729        73.4906 
 254   0.0000       2.712219        73.8032 
 255   0.0000       2.745199        74.7006 
 256   0.0000       2.752794        74.9073 
 257   0.0000       2.761792        75.1522 
 258   0.0000       2.768750        75.3415 
 259   0.0000       2.782111        75.7051 
 260   0.0000       2.811853        76.5144 
 261   0.0000       2.831882        77.0594 
 262   0.0000       2.851542        77.5944 
 263   0.0000       2.865428        77.9723 
 264   0.0000       2.873144        78.1822 
 265   0.0000       2.875539        78.2474 
 266   0.0000       2.895329        78.7859 
 267   0.0000       2.907145        79.1074 
 268   0.0000       2.924342        79.5754 
 269   0.0000       2.931790        79.7781 
 270   0.0000       2.967829        80.7587 
 271   0.0000       2.973112        80.9025 
 272   0.0000       2.983486        81.1848 
 273   0.0000       3.003021        81.7164 
 274   0.0000       3.026459        82.3541 
 275   0.0000       3.054961        83.1297 
 276   0.0000       3.067316        83.4659 
 277   0.0000       3.077128        83.7329 
 278   0.0000       3.086729        83.9942 
 279   0.0000       3.101909        84.4072 
 280   0.0000       3.105231        84.4976 
 281   0.0000       3.136652        85.3526 
 282   0.0000       3.152405        85.7813 
 283   0.0000       3.205954        87.2384 
 284   0.0000       3.211112        87.3788 
 285   0.0000       3.245819        88.3232 
 286   0.0000       3.252768        88.5123 
 287   0.0000       3.286942        89.4422 
 288   0.0000       3.298083        89.7454 
 289   0.0000       3.360286        91.4380 
 290   0.0000       3.864755       105.1653 
 291   0.0000       3.873189       105.3948 
 292   0.0000       3.881844       105.6304 
 293   0.0000       3.888969       105.8242 
 294   0.0000       3.897106       106.0456 
 295   0.0000       4.119329       112.0926 
 296   0.0000       4.128780       112.3498 
 297   0.0000       4.132747       112.4578 
 298   0.0000       4.139236       112.6343 
 299   0.0000       4.143919       112.7618 
 300   0.0000       4.163678       113.2994 
 301   0.0000       4.171971       113.5251 
 302   0.0000       4.178498       113.7027 
 303   0.0000       4.185686       113.8983 
 304   0.0000       4.203699       114.3885 
 305   0.0000       4.238019       115.3224 
 306   0.0000       4.246761       115.5602 
 307   0.0000       4.250169       115.6530 
 308   0.0000       4.267681       116.1295 
 309   0.0000       4.278570       116.4258 
 310   0.0000       4.284607       116.5901 
 311   0.0000       4.295232       116.8792 
 312   0.0000       4.300406       117.0200 
 313   0.0000       4.327813       117.7658 
 314   0.0000       4.346786       118.2821 
 315   0.0000       4.382908       119.2650 
 316   0.0000       4.414443       120.1231 
 317   0.0000       4.426810       120.4596 
 318   0.0000       4.431687       120.5923 
 319   0.0000       4.444396       120.9382 
 320   0.0000       4.494573       122.3035 
 321   0.0000       4.510777       122.7445 
 322   0.0000       4.531600       123.3111 
 323   0.0000       4.535227       123.4098 
 324   0.0000       4.537416       123.4694 
 325   0.0000       4.568265       124.3088 
 326   0.0000       4.569341       124.3381 
 327   0.0000       4.581907       124.6800 
 328   0.0000       4.592728       124.9745 
 329   0.0000       4.612629       125.5160 
 330   0.0000       4.621552       125.7588 
 331   0.0000       4.635936       126.1502 
 332   0.0000       4.640252       126.2677 
 333   0.0000       4.655930       126.6943 
 334   0.0000       4.669070       127.0518 
 335   0.0000       4.677936       127.2931 
 336   0.0000       4.691335       127.6577 
 337   0.0000       4.697520       127.8260 
 338   0.0000       4.717367       128.3661 
 339   0.0000       4.730846       128.7329 
 340   0.0000       4.735245       128.8526 
 341   0.0000       4.748657       129.2175 
 342   0.0000       4.789994       130.3424 
 343   0.0000       4.800637       130.6320 
 344   0.0000       4.807665       130.8232 
 345   0.0000       4.901218       133.3689 
 346   0.0000       4.915612       133.7606 
 347   0.0000       4.918808       133.8476 
 348   0.0000       4.944801       134.5549 
 349   0.0000       4.954598       134.8215 
 350   0.0000       5.062100       137.7467 
 351   0.0000       5.084356       138.3524 
 352   0.0000       5.090533       138.5205 
 353   0.0000       5.101927       138.8305 
 354   0.0000       5.117176       139.2454 
 355   0.0000       5.157377       140.3394 
 356   0.0000       5.178385       140.9110 
 357   0.0000       5.201748       141.5468 
 358   0.0000       5.210692       141.7901 
 359   0.0000       5.251894       142.9113 
 360   0.0000       5.277145       143.5984 
 361   0.0000       5.281239       143.7098 
 362   0.0000       5.313981       144.6008 
 363   0.0000       5.357271       145.7788 
 364   0.0000       5.363015       145.9350 
 365   0.0000       5.384242       146.5127 
 366   0.0000       5.391384       146.7070 
 367   0.0000       5.402916       147.0208 
 368   0.0000       5.410491       147.2269 
 369   0.0000       5.438040       147.9766 
 370   0.0000       5.450109       148.3050 
 371   0.0000       5.495474       149.5395 
 372   0.0000       5.509535       149.9221 
 373   0.0000       5.549733       151.0159 
 374   0.0000       5.567690       151.5046 
 375   0.0000       5.617501       152.8600 
 376   0.0000       5.658857       153.9853 
 377   0.0000       5.701019       155.1326 
 378   0.0000       5.723296       155.7388 
 379   0.0000       5.751453       156.5050 
 380   0.0000       5.884353       160.1214 
 381   0.0000       5.893919       160.3817 
 382   0.0000       5.925959       161.2536 
 383   0.0000       5.939967       161.6347 
 384   0.0000       5.969110       162.4277 
 385   0.0000       6.421751       174.7447 
 386   0.0000       6.434056       175.0796 
 387   0.0000       6.437726       175.1794 
 388   0.0000       6.450027       175.5141 
 389   0.0000       6.465162       175.9260 
 390   0.0000       6.580533       179.0654 
 391   0.0000       6.585250       179.1938 
 392   0.0000       6.586215       179.2200 
 393   0.0000       6.587768       179.2623 
 394   0.0000       6.616854       180.0537 
 395   0.0000       6.898530       187.7185 
 396   0.0000       6.909805       188.0253 
 397   0.0000       6.927805       188.5151 
 398   0.0000       6.943645       188.9462 
 399   0.0000       6.968954       189.6349 
 400   0.0000       6.970940       189.6889 
 401   0.0000       6.996941       190.3964 
 402   0.0000       7.046917       191.7564 
 403   0.0000       7.058319       192.0666 
 404   0.0000       7.104491       193.3230 
 405   0.0000       7.182431       195.4439 
 406   0.0000       7.215527       196.3445 
 407   0.0000       7.225533       196.6168 
 408   0.0000       7.232552       196.8077 
 409   0.0000       7.250143       197.2864 
 410   0.0000       7.281981       198.1528 
 411   0.0000       7.339861       199.7278 
 412   0.0000       7.347093       199.9246 
 413   0.0000       7.357162       200.1985 
 414   0.0000       7.361160       200.3073 
 415   0.0000       7.386962       201.0095 
 416   0.0000       7.413573       201.7336 
 417   0.0000       7.424522       202.0315 
 418   0.0000       7.446801       202.6377 
 419   0.0000       7.456587       202.9041 
 420   0.0000       7.464938       203.1313 
 421   0.0000       7.469912       203.2666 
 422   0.0000       7.487929       203.7569 
 423   0.0000       7.498499       204.0445 
 424   0.0000       7.520828       204.6521 
 425   0.0000       7.523919       204.7362 
 426   0.0000       7.527151       204.8242 
 427   0.0000       7.535375       205.0480 
 428   0.0000       7.566780       205.9025 
 429   0.0000       7.578921       206.2329 
 430   0.0000       7.635537       207.7735 
 431   0.0000       7.648619       208.1295 
 432   0.0000       7.659133       208.4156 
 433   0.0000       7.704182       209.6415 
 434   0.0000       7.716196       209.9684 
 435   0.0000       7.843200       213.4243 
 436   0.0000       7.852990       213.6907 
 437   0.0000       7.864221       213.9963 
 438   0.0000       7.883611       214.5239 
 439   0.0000       7.887676       214.6346 
 440   0.0000       8.036760       218.6914 
 441   0.0000       8.044928       218.9136 
 442   0.0000       8.046626       218.9598 
 443   0.0000       8.054298       219.1686 
 444   0.0000       8.061469       219.3637 
 445   0.0000       8.075266       219.7392 
 446   0.0000       8.088125       220.0891 
 447   0.0000       8.184386       222.7085 
 448   0.0000       8.192426       222.9272 
 449   0.0000       8.278444       225.2679 
 450   0.0000       8.967404       244.0155 
 451   0.0000       8.980417       244.3696 
 452   0.0000       8.999937       244.9007 
 453   0.0000       9.013769       245.2771 
 454   0.0000       9.062692       246.6084 
 455   0.0000      16.048104       436.6911 
 456   0.0000      16.683004       453.9676 
 457   0.0000      16.720234       454.9807 
 458   0.0000      17.683385       481.1894 
 459   0.0000      17.709971       481.9128 

                    ********************************
                    * MULLIKEN POPULATION ANALYSIS *
                    ********************************

-----------------------
MULLIKEN ATOMIC CHARGES
-----------------------
   0 O :   -0.486184
   1 H :    0.179930
   2 H :    0.310858
   3 O :   -0.484328
   4 H :    0.302263
   5 H :    0.183524
   6 O :   -0.501847
   7 H :    0.180060
   8 H :    0.315820
   9 O :   -0.486027
  10 H :    0.308911
  11 H :    0.178595
  12 O :   -0.488487
  13 H :    0.308067
  14 H :    0.178846
Sum of atomic charges:    0.0000000

--------------------------------
MULLIKEN REDUCED ORBITAL CHARGES
--------------------------------
  0 O s       :     3.871633  s :     3.871633
      pz      :     1.479026  p :     4.598467
      px      :     1.613380
      py      :     1.506061
      dz2     :     0.002950  d :     0.015532
      dxz     :     0.004306
      dyz     :     0.001661
      dx2y2   :     0.001087
      dxy     :     0.005529
      f0      :     0.000070  f :     0.000552
      f+1     :     0.000210
      f-1     :     0.000080
      f+2     :     0.000236
      f-2     :     0.000053
      f+3     :    -0.000055
      f-3     :    -0.000042
  1 H s       :     0.692356  s :     0.692356
      pz      :     0.027719  p :     0.108441
      px      :     0.040935
      py      :     0.039786
      dz2     :     0.007006  d :     0.019273
      dxz     :     0.002312
      dyz     :     0.004107
      dx2y2   :     0.003570
      dxy     :     0.002278
  2 H s       :     0.567496  s :     0.567496
      pz      :     0.036166  p :     0.067379
      px      :     0.037448
      py      :    -0.006234
      dz2     :     0.006412  d :     0.054267
      dxz     :     0.005641
      dyz     :     0.015302
      dx2y2   :     0.016491
      dxy     :     0.010421
  3 O s       :     3.876104  s :     3.876104
      pz      :     1.443585  p :     4.592534
      px      :     1.499861
      py      :     1.649087
      dz2     :     0.005369  d :     0.015115
      dxz     :     0.003565
      dyz     :     0.001218
      dx2y2   :    -0.001204
      dxy     :     0.006167
      f0      :     0.000015  f :     0.000577
      f+1     :     0.000274
      f-1     :     0.000087
      f+2     :     0.000017
      f-2     :     0.000057
      f+3     :     0.000049
      f-3     :     0.000078
  4 H s       :     0.581177  s :     0.581177
      pz      :     0.027133  p :     0.063082
      px      :     0.004092
      py      :     0.031857
      dz2     :     0.003450  d :     0.053478
      dxz     :     0.009932
      dyz     :     0.006192
      dx2y2   :     0.026358
      dxy     :     0.007545
  5 H s       :     0.692816  s :     0.692816
      pz      :     0.022295  p :     0.104441
      px      :     0.040333
      py      :     0.041812
      dz2     :     0.005557  d :     0.019219
      dxz     :     0.002291
      dyz     :     0.006232
      dx2y2   :     0.001763
      dxy     :     0.003375
  6 O s       :     3.879287  s :     3.879287
      pz      :     1.431299  p :     4.605297
      px      :     1.529485
      py      :     1.644512
      dz2     :     0.004103  d :     0.016653
      dxz     :     0.003940
      dyz     :     0.001742
      dx2y2   :     0.003628
      dxy     :     0.003240
      f0      :    -0.000032  f :     0.000611
      f+1     :     0.000145
      f-1     :     0.000275
      f+2     :     0.000012
      f-2     :     0.000230
      f+3     :     0.000004
      f-3     :    -0.000023
  7 H s       :     0.692275  s :     0.692275
      pz      :     0.025977  p :     0.108407
      px      :     0.034330
      py      :     0.048099
      dz2     :     0.005843  d :     0.019259
      dxz     :     0.005027
      dyz     :     0.003799
      dx2y2   :     0.001506
      dxy     :     0.003085
  8 H s       :     0.562370  s :     0.562370
      pz      :     0.030229  p :     0.067426
      px      :     0.010486
      py      :     0.026710
      dz2     :     0.006346  d :     0.054385
      dxz     :     0.013826
      dyz     :     0.005885
      dx2y2   :     0.016206
      dxy     :     0.012122
  9 O s       :     3.870600  s :     3.870600
      pz      :     1.469415  p :     4.599446
      px      :     1.708621
      py      :     1.421410
      dz2     :     0.004586  d :     0.015448
      dxz     :     0.003305
      dyz     :     0.003277
      dx2y2   :     0.005707
      dxy     :    -0.001428
      f0      :     0.000020  f :     0.000533
      f+1     :     0.000408
      f-1     :    -0.000109
      f+2     :     0.000185
      f-2     :    -0.000057
      f+3     :     0.000080
      f-3     :     0.000007
 10 H s       :     0.568133  s :     0.568133
      pz      :     0.025789  p :     0.068475
      px      :     0.039015
      py      :     0.003671
      dz2     :     0.004568  d :     0.054480
      dxz     :     0.001731
      dyz     :     0.012325
      dx2y2   :     0.013036
      dxy     :     0.022819
 11 H s       :     0.692577  s :     0.692577
      pz      :     0.023407  p :     0.109560
      px      :     0.051246
      py      :     0.034906
      dz2     :     0.005793  d :     0.019268
      dxz     :     0.004365
      dyz     :     0.003085
      dx2y2   :     0.003739
      dxy     :     0.002285
 12 O s       :     3.872138  s :     3.872138
      pz      :     1.687992  p :     4.600513
      px      :     1.366955
      py      :     1.545566
      dz2     :     0.002661  d :     0.015267
      dxz     :     0.002261
      dyz     :     0.002198
      dx2y2   :     0.006544
      dxy     :     0.001602
      f0      :     0.000218  f :     0.000570
      f+1     :     0.000214
      f-1     :    -0.000006
      f+2     :     0.000180
      f-2     :     0.000137
      f+3     :    -0.000152
      f-3     :    -0.000021
 13 H s       :     0.568608  s :     0.568608
      pz      :     0.038098  p :     0.067687
      px      :    -0.006902
      py      :     0.036491
      dz2     :     0.004010  d :     0.055639
      dxz     :     0.021665
      dyz     :     0.000002
      dx2y2   :     0.010098
      dxy     :     0.019864
 14 H s       :     0.694244  s :     0.694244
      pz      :     0.035005  p :     0.107707
      px      :     0.033706
      py      :     0.038997
      dz2     :     0.006493  d :     0.019202
      dxz     :     0.001876
      dyz     :     0.001740
      dx2y2   :     0.006842
      dxy     :     0.002251


                     *******************************
                     * LOEWDIN POPULATION ANALYSIS *
                     *******************************

----------------------
LOEWDIN ATOMIC CHARGES
----------------------
   0 O :    1.107433
   1 H :   -0.443544
   2 H :   -0.662725
   3 O :    1.109132
   4 H :   -0.653915
   5 H :   -0.446029
   6 O :    1.103758
   7 H :   -0.448515
   8 H :   -0.664030
   9 O :    1.106484
  10 H :   -0.664592
  11 H :   -0.443777
  12 O :    1.108059
  13 H :   -0.663451
  14 H :   -0.444287

-------------------------------
LOEWDIN REDUCED ORBITAL CHARGES
-------------------------------
  0 O s       :     2.950396  s :     2.950396
      pz      :     1.256964  p :     3.823694
      px      :     1.296826
      py      :     1.269904
      dz2     :     0.016314  d :     0.100585
      dxz     :     0.025124
      dyz     :     0.014100
      dx2y2   :     0.028079
      dxy     :     0.016969
      f0      :     0.001149  f :     0.017893
      f+1     :     0.005616
      f-1     :     0.001002
      f+2     :     0.002001
      f-2     :     0.002164
      f+3     :     0.004815
      f-3     :     0.001146
  1 H s       :     0.576537  s :     0.576537
      pz      :     0.207764  p :     0.517646
      px      :     0.170523
      py      :     0.139359
      dz2     :     0.101323  d :     0.349361
      dxz     :     0.085773
      dyz     :     0.080215
      dx2y2   :     0.045553
      dxy     :     0.036497
  2 H s       :     0.530132  s :     0.530132
      pz      :     0.150119  p :     0.615057
      px      :     0.159089
      py      :     0.305849
      dz2     :     0.072205  d :     0.517536
      dxz     :     0.032747
      dyz     :     0.135170
      dx2y2   :     0.138586
      dxy     :     0.138828
  3 O s       :     2.950261  s :     2.950261
      pz      :     1.261297  p :     3.822414
      px      :     1.255160
      py      :     1.305957
      dz2     :     0.025905  d :     0.100335
      dxz     :     0.024221
      dyz     :     0.006787
      dx2y2   :     0.012154
      dxy     :     0.031268
      f0      :     0.001929  f :     0.017859
      f+1     :     0.005344
      f-1     :     0.001933
      f+2     :     0.001843
      f-2     :     0.001057
      f+3     :     0.002804
      f-3     :     0.002948
  4 H s       :     0.531962  s :     0.531962
      pz      :     0.130522  p :     0.609494
      px      :     0.253766
      py      :     0.225206
      dz2     :     0.048052  d :     0.512459
      dxz     :     0.095152
      dyz     :     0.065531
      dx2y2   :     0.152031
      dxy     :     0.151694
  5 H s       :     0.578141  s :     0.578141
      pz      :     0.223334  p :     0.518713
      px      :     0.156006
      py      :     0.139373
      dz2     :     0.115889  d :     0.349175
      dxz     :     0.090514
      dyz     :     0.082221
      dx2y2   :     0.026811
      dxy     :     0.033739
  6 O s       :     2.953754  s :     2.953754
      pz      :     1.237058  p :     3.825872
      px      :     1.279492
      py      :     1.309322
      dz2     :     0.023363  d :     0.099042
      dxz     :     0.013520
      dyz     :     0.019506
      dx2y2   :     0.010017
      dxy     :     0.032636
      f0      :     0.001573  f :     0.017574
      f+1     :     0.003328
      f-1     :     0.003970
      f+2     :     0.000989
      f-2     :     0.002019
      f+3     :     0.000955
      f-3     :     0.004740
  7 H s       :     0.578444  s :     0.578444
      pz      :     0.217190  p :     0.520135
      px      :     0.142024
      py      :     0.160921
      dz2     :     0.108304  d :     0.349936
      dxz     :     0.090341
      dyz     :     0.091338
      dx2y2   :     0.026995
      dxy     :     0.032957
  8 H s       :     0.529755  s :     0.529755
      pz      :     0.146164  p :     0.616126
      px      :     0.281828
      py      :     0.188134
      dz2     :     0.071767  d :     0.518149
      dxz     :     0.108632
      dyz     :     0.056560
      dx2y2   :     0.136608
      dxy     :     0.144581
  9 O s       :     2.951154  s :     2.951154
      pz      :     1.276168  p :     3.824269
      px      :     1.328216
      py      :     1.219885
      dz2     :     0.021246  d :     0.100209
      dxz     :     0.021564
      dyz     :     0.013980
      dx2y2   :     0.024475
      dxy     :     0.018944
      f0      :     0.001668  f :     0.017883
      f+1     :     0.003860
      f-1     :     0.002958
      f+2     :     0.001535
      f-2     :     0.002370
      f+3     :     0.001709
      f-3     :     0.003784
 10 H s       :     0.529930  s :     0.529930
      pz      :     0.140294  p :     0.616049
      px      :     0.148038
      py      :     0.327717
      dz2     :     0.049606  d :     0.518614
      dxz     :     0.015223
      dyz     :     0.159093
      dx2y2   :     0.143223
      dxy     :     0.151469
 11 H s       :     0.576269  s :     0.576269
      pz      :     0.219349  p :     0.517942
      px      :     0.164072
      py      :     0.134522
      dz2     :     0.114381  d :     0.349566
      dxz     :     0.085793
      dyz     :     0.076481
      dx2y2   :     0.037238
      dxy     :     0.035673
 12 O s       :     2.950019  s :     2.950019
      pz      :     1.354143  p :     3.823309
      px      :     1.200513
      py      :     1.268653
      dz2     :     0.013405  d :     0.100765
      dxz     :     0.008318
      dyz     :     0.017605
      dx2y2   :     0.040668
      dxy     :     0.020769
      f0      :     0.001357  f :     0.017847
      f+1     :     0.001682
      f-1     :     0.001429
      f+2     :     0.002421
      f-2     :     0.003213
      f+3     :     0.005776
      f-3     :     0.001968
 13 H s       :     0.529755  s :     0.529755
      pz      :     0.144462  p :     0.615824
      px      :     0.341672
      py      :     0.129691
      dz2     :     0.053019  d :     0.517872
      dxz     :     0.160362
      dyz     :     0.002431
      dx2y2   :     0.147777
      dxy     :     0.154283
 14 H s       :     0.577430  s :     0.577430
      pz      :     0.187164  p :     0.517782
      px      :     0.138812
      py      :     0.191806
      dz2     :     0.074298  d :     0.349076
      dxz     :     0.043601
      dyz     :     0.080811
      dx2y2   :     0.083904
      dxy     :     0.066462


                      *****************************
                      * MAYER POPULATION ANALYSIS *
                      *****************************

  NA   - Mulliken gross atomic population
  ZA   - Total nuclear charge
  QA   - Mulliken gross atomic charge
  VA   - Mayer's total valence
  BVA  - Mayer's bonded valence
  FA   - Mayer's free valence

  ATOM       NA         ZA         QA         VA         BVA        FA
  0 O      8.4862     8.0000    -0.4862     1.8805     1.8805     0.0000
  1 H      0.8201     1.0000     0.1799     1.0886     1.0886     0.0000
  2 H      0.6891     1.0000     0.3109     0.9835     0.9835     0.0000
  3 O      8.4843     8.0000    -0.4843     1.8765     1.8765    -0.0000
  4 H      0.6977     1.0000     0.3023     0.9941     0.9941     0.0000
  5 H      0.8165     1.0000     0.1835     1.0740     1.0740     0.0000
  6 O      8.5018     8.0000    -0.5018     1.8747     1.8747     0.0000
  7 H      0.8199     1.0000     0.1801     1.0879     1.0879     0.0000
  8 H      0.6842     1.0000     0.3158     0.9801     0.9801    -0.0000
  9 O      8.4860     8.0000    -0.4860     1.8816     1.8816    -0.0000
 10 H      0.6911     1.0000     0.3089     0.9871     0.9871    -0.0000
 11 H      0.8214     1.0000     0.1786     1.0917     1.0917    -0.0000
 12 O      8.4885     8.0000    -0.4885     1.8840     1.8840     0.0000
 13 H      0.6919     1.0000     0.3081     0.9892     0.9892     0.0000
 14 H      0.8212     1.0000     0.1788     1.0875     1.0875    -0.0000

  Mayer bond orders larger than 0.100000
B(  0-O ,  1-H ) :   1.0472 B(  0-O ,  2-H ) :   0.8782 B(  3-O ,  4-H ) :   0.8846 
B(  3-O ,  5-H ) :   1.0437 B(  6-O ,  7-H ) :   1.0517 B(  6-O ,  8-H ) :   0.8719 
B(  9-O , 10-H ) :   0.8781 B(  9-O , 11-H ) :   1.0510 B( 12-O , 13-H ) :   0.8789 
B( 12-O , 14-H ) :   1.0509 

-------
TIMINGS
-------

Total SCF time: 0 days 0 hours 0 min 41 sec 

Total time                  ....      41.391 sec
Sum of individual times     ....      40.963 sec  ( 99.0%)

Fock matrix formation       ....      40.150 sec  ( 97.0%)
Diagonalization             ....       0.265 sec  (  0.6%)
Density matrix formation    ....       0.025 sec  (  0.1%)
Population analysis         ....       0.034 sec  (  0.1%)
Initial guess               ....       0.169 sec  (  0.4%)
Orbital Transformation      ....       0.000 sec  (  0.0%)
Orbital Orthonormalization  ....       0.000 sec  (  0.0%)
DIIS solution               ....       0.116 sec  (  0.3%)
SOSCF solution              ....       0.170 sec  (  0.4%)


           ************************************************************
[...]
      dxy     :     0.015337
  5 H s       :     0.673372  s :     0.673372
      pz      :     0.037100  p :     0.117288
      px      :     0.048538
      py      :     0.031650
      dz2     :     0.005862  d :     0.016357
      dxz     :     0.001128
      dyz     :     0.001808
      dx2y2   :     0.005333
      dxy     :     0.002226
  6 O s       :     3.902173  s :     3.902173
      pz      :     1.456772  p :     4.543140
      px      :     1.362014
      py      :     1.724353
      dz2     :     0.007956  d :     0.039305
      dxz     :     0.012994
      dyz     :     0.006352
      dx2y2   :     0.007429
      dxy     :     0.004574
      f0      :     0.000538  f :     0.004515
      f+1     :     0.000629
      f-1     :     0.000739
      f+2     :     0.000582
      f-2     :     0.000665
      f+3     :     0.000718
      f-3     :     0.000642
  7 H s       :     0.727291  s :     0.727291
      pz      :     0.030455  p :     0.121625
      px      :     0.030121
      py      :     0.061049
      dz2     :     0.004134  d :     0.017007
      dxz     :     0.001126
      dyz     :     0.003859
      dx2y2   :     0.004841
      dxy     :     0.003047
  8 H s       :     0.566818  s :     0.566818
      pz      :     0.020010  p :     0.072777
      px      :     0.002551
      py      :     0.050216
      dz2     :     0.007725  d :     0.048092
      dxz     :     0.007620
      dyz     :     0.001579
      dx2y2   :     0.012589
      dxy     :     0.018579
  9 O s       :     3.894058  s :     3.894058
      pz      :     1.504671  p :     4.550514
      px      :     1.738884
      py      :     1.306959
      dz2     :     0.009590  d :     0.047803
      dxz     :     0.008297
      dyz     :     0.013043
      dx2y2   :     0.008406
      dxy     :     0.008467
      f0      :     0.000568  f :     0.004458
      f+1     :     0.000613
      f-1     :     0.000641
      f+2     :     0.000608
      f-2     :     0.000776
      f+3     :     0.000515
      f-3     :     0.000736
 10 H s       :     0.577056  s :     0.577056
      pz      :     0.023479  p :     0.130913
      px      :     0.048745
      py      :     0.058690
      dz2     :     0.006846  d :     0.025621
      dxz     :     0.007393
      dyz     :     0.000126
      dx2y2   :     0.004596
      dxy     :     0.006661
 11 H s       :     0.566452  s :     0.566452
      pz      :     0.031088  p :     0.114450
      px      :     0.056459
      py      :     0.026902
      dz2     :     0.005293  d :     0.038060
      dxz     :     0.002265
      dyz     :     0.006493
      dx2y2   :     0.010219
      dxy     :     0.013790
 12 O s       :     3.889963  s :     3.889963
      pz      :     1.785069  p :     4.550731
      px      :     1.460675
      py      :     1.304988
      dz2     :     0.008646  d :     0.044625
      dxz     :     0.009098
      dyz     :     0.006716
      dx2y2   :     0.012026
      dxy     :     0.008139
      f0      :     0.000747  f :     0.004866
      f+1     :     0.000748
      f-1     :     0.000800
      f+2     :     0.000737
      f-2     :     0.000632
      f+3     :     0.000583
      f-3     :     0.000618
 13 H s       :     0.673511  s :     0.673511
      pz      :     0.052395  p :     0.116728
      px      :     0.038189
      py      :     0.026143
      dz2     :     0.001583  d :     0.014426
      dxz     :     0.000338
      dyz     :     0.006505
      dx2y2   :     0.000070
      dxy     :     0.005930
 14 H s       :     0.598192  s :     0.598192
      pz      :     0.045878  p :     0.096760
      px      :     0.021892
      py      :     0.028990
      dz2     :     0.002393  d :     0.024059
      dxz     :     0.007267
      dyz     :     0.004290
      dx2y2   :     0.005785
      dxy     :     0.004324


                     *******************************
                     * LOEWDIN POPULATION ANALYSIS *
                     *******************************

----------------------
LOEWDIN ATOMIC CHARGES
----------------------
   0 O :    1.098583
   1 H :   -0.629787
   2 H :   -0.457024
   3 O :    1.097128
   4 H :   -0.628036
   5 H :   -0.458094
   6 O :    1.107742
   7 H :   -0.438444
   8 H :   -0.664383
   9 O :    1.117488
  10 H :   -0.554406
  11 H :   -0.620584
  12 O :    1.073403
  13 H :   -0.471005
  14 H :   -0.572580

-------------------------------
LOEWDIN REDUCED ORBITAL CHARGES
-------------------------------
  0 O s       :     2.961651  s :     2.961651
      pz      :     1.311328  p :     3.795762
      px      :     1.236730
      py      :     1.247704
      dz2     :     0.013142  d :     0.122130
      dxz     :     0.013217
      dyz     :     0.034032
      dx2y2   :     0.048485
      dxy     :     0.013254
      f0      :     0.002928  f :     0.021874
      f+1     :     0.001938
      f-1     :     0.001906
      f+2     :     0.005547
      f-2     :     0.001540
      f+3     :     0.004872
      f-3     :     0.003143
  1 H s       :     0.539434  s :     0.539434
      pz      :     0.154469  p :     0.609447
      px      :     0.320427
      py      :     0.134550
      dz2     :     0.059212  d :     0.480906
      dxz     :     0.137601
      dyz     :     0.011351
      dx2y2   :     0.140767
      dxy     :     0.131976
  2 H s       :     0.572532  s :     0.572532
      pz      :     0.195765  p :     0.541316
      px      :     0.137186
      py      :     0.208365
      dz2     :     0.070646  d :     0.343176
      dxz     :     0.043638
      dyz     :     0.089495
      dx2y2   :     0.070909
      dxy     :     0.068488
  3 O s       :     2.963976  s :     2.963976
      pz      :     1.323746  p :     3.797107
      px      :     1.293628
      py      :     1.179733
      dz2     :     0.016549  d :     0.120112
      dxz     :     0.020345
      dyz     :     0.023472
      dx2y2   :     0.038944
      dxy     :     0.020803
      f0      :     0.001838  f :     0.021677
      f+1     :     0.002583
      f-1     :     0.002222
      f+2     :     0.002772
      f-2     :     0.005101
      f+3     :     0.002922
      f-3     :     0.004239
  4 H s       :     0.540441  s :     0.540441
      pz      :     0.166123  p :     0.607953
      px      :     0.144217
      py      :     0.297613
      dz2     :     0.051278  d :     0.479641
      dxz     :     0.008807
      dyz     :     0.158736
      dx2y2   :     0.131068
      dxy     :     0.129753
  5 H s       :     0.572028  s :     0.572028
      pz      :     0.208700  p :     0.542128
      px      :     0.184704
      py      :     0.148724
      dz2     :     0.085765  d :     0.343938
      dxz     :     0.071199
      dyz     :     0.058650
      dx2y2   :     0.074932
      dxy     :     0.053392
  6 O s       :     2.947368  s :     2.947368
      pz      :     1.276921  p :     3.785889
      px      :     1.189136
      py      :     1.319833
      dz2     :     0.014903  d :     0.136436
      dxz     :     0.043874
      dyz     :     0.024154
      dx2y2   :     0.035893
      dxy     :     0.017613
      f0      :     0.002586  f :     0.022564
      f+1     :     0.003878
      f-1     :     0.002270
      f+2     :     0.004710
      f-2     :     0.003864
      f+3     :     0.003010
      f-3     :     0.002247
  7 H s       :     0.571724  s :     0.571724
      pz      :     0.206479  p :     0.529064
      px      :     0.153948
      py      :     0.168637
      dz2     :     0.096658  d :     0.337656
      dxz     :     0.070679
      dyz     :     0.065917
      dx2y2   :     0.056408
      dxy     :     0.047994
  8 H s       :     0.506410  s :     0.506410
      pz      :     0.161238  p :     0.636815
      px      :     0.333244
      py      :     0.142332
      dz2     :     0.068174  d :     0.521158
      dxz     :     0.154935
      dyz     :     0.023679
      dx2y2   :     0.141683
      dxy     :     0.132687
  9 O s       :     2.944866  s :     2.944866
      pz      :     1.301226  p :     3.783447
      px      :     1.316869
      py      :     1.165353
      dz2     :     0.018429  d :     0.130458
      dxz     :     0.012953
      dyz     :     0.040923
      dx2y2   :     0.041590
      dxy     :     0.016563
      f0      :     0.002317  f :     0.023741
      f+1     :     0.002069
      f-1     :     0.004416
      f+2     :     0.004943
      f-2     :     0.002972
      f+3     :     0.004385
      f-3     :     0.002639
 10 H s       :     0.539577  s :     0.539577
      pz      :     0.238970  p :     0.579781
      px      :     0.158063
      py      :     0.182748
      dz2     :     0.118106  d :     0.435048
      dxz     :     0.077225
      dyz     :     0.114572
      dx2y2   :     0.065506
      dxy     :     0.059640
 11 H s       :     0.534360  s :     0.534360
      pz      :     0.174605  p :     0.606375
      px      :     0.151922
      py      :     0.279848
      dz2     :     0.060824  d :     0.479848
      dxz     :     0.025126
      dyz     :     0.153104
      dx2y2   :     0.130817
      dxy     :     0.109978
 12 O s       :     2.978672  s :     2.978672
      pz      :     1.374640  p :     3.816305
      px      :     1.264654
      py      :     1.177011
      dz2     :     0.016831  d :     0.110895
      dxz     :     0.013252
      dyz     :     0.018014
      dx2y2   :     0.041774
      dxy     :     0.021023
      f0      :     0.002008  f :     0.020725
      f+1     :     0.001775
      f-1     :     0.002432
      f+2     :     0.003582
      f-2     :     0.001893
      f+3     :     0.002270
      f-3     :     0.006765
 13 H s       :     0.574043  s :     0.574043
      pz      :     0.174947  p :     0.548657
      px      :     0.145589
      py      :     0.228120
      dz2     :     0.040555  d :     0.348306
      dxz     :     0.005730
      dyz     :     0.108353
      dx2y2   :     0.077064
      dxy     :     0.116604
 14 H s       :     0.549781  s :     0.549781
      pz      :     0.183190  p :     0.588583
      px      :     0.249913
      py      :     0.155480
      dz2     :     0.050115  d :     0.434216
      dxz     :     0.117041
      dyz     :     0.043033
      dx2y2   :     0.115565
      dxy     :     0.108462


                      *****************************
                      * MAYER POPULATION ANALYSIS *
                      *****************************

  NA   - Mulliken gross atomic population
  ZA   - Total nuclear charge
  QA   - Mulliken gross atomic charge
  VA   - Mayer's total valence
  BVA  - Mayer's bonded valence
  FA   - Mayer's free valence

  ATOM       NA         ZA         QA         VA         BVA        FA
  0 O      8.4842     8.0000    -0.4842     2.1751     1.8015     0.3736
  1 H      0.7009     1.0000     0.2991     0.9784     0.9199     0.0585
  2 H      0.8146     1.0000     0.1854     1.0890     1.0216     0.0674
  3 O      8.4849     8.0000    -0.4849     2.1603     1.7864     0.3738
  4 H      0.7024     1.0000     0.2976     0.9784     0.9170     0.0614
  5 H      0.8070     1.0000     0.1930     1.0878     1.0224     0.0655
  6 O      8.4891     8.0000    -0.4891     2.1212     1.7437     0.3775
  7 H      0.8659     1.0000     0.1341     1.1193     1.0487     0.0706
  8 H      0.6877     1.0000     0.3123     0.9826     0.9250     0.0576
  9 O      8.4968     8.0000    -0.4968     2.1398     1.7621     0.3777
 10 H      0.7336     1.0000     0.2664     1.0312     0.9724     0.0588
 11 H      0.7190     1.0000     0.2810     1.0517     0.9916     0.0602
 12 O      8.4902     8.0000    -0.4902     2.1872     1.8132     0.3741
 13 H      0.8047     1.0000     0.1953     1.0880     1.0229     0.0651
 14 H      0.7190     1.0000     0.2810     0.9817     0.9184     0.0633

  Mayer bond orders larger than 0.100000
B(  0-O ,  1-H ) :   0.8226 B(  0-O ,  2-H ) :   0.9888 B(  3-O ,  4-H ) :   0.8157 
B(  3-O ,  5-H ) :   0.9851 B(  6-O ,  7-H ) :   1.0335 B(  6-O ,  8-H ) :   0.7153 
B(  8-H ,  9-O ) :   0.1451 B(  9-O , 10-H ) :   0.9042 B(  9-O , 11-H ) :   0.8232 
B( 12-O , 13-H ) :   0.9800 B( 12-O , 14-H ) :   0.8510 


----------------------------------
MP2 DERIVATIVE INTEGRAL GENERATION
----------------------------------


Input Wavefunction Amplitudes       ... 5h2o.temelso.etal-orca.engrad-mp2.augccpvtz_job7.mp2tsaa.tmp
Input Correlated Electron Density   ... 5h2o.temelso.etal-orca.engrad-mp2.augccpvtz_job7.pmp2re
Input Energy Weighted Density       ... 5h2o.temelso.etal-orca.engrad-mp2.augccpvtz_job7.wmp2.tmp
Input SCF Electron Density          ... 5h2o.temelso.etal-orca.engrad-mp2.augccpvtz_job7.scfp

One-Electron Terms    ...
                        ... One-Electron Terms done
Prescreening matrices              ... done

Batch handling in the gradient evaluation:
Memory available                      ... 8000.0 MB
Memory per occupied orbital in Q2     ...   32.3 MB
Memory per occupied orbital in Q3     ...    0.2 MB
Total memory requirement per |i>      ...   32.5 MB
Max. Number of orbitals possible      ...    246
Number of orbitals treated per batch  ...     20
Number of batches to be done          ...      1
Batch   0: i=    5 ...    24

---------------------------------------
MP2 TOTAL ENERGY:     -381.698499187 Eh
---------------------------------------

The final MP2 gradient
  0:   0.00287120   0.00250455  -0.00129197
  1:  -0.00264681   0.00047926  -0.00193710
  2:   0.00041217  -0.00298442   0.00253621
  3:   0.00176261  -0.00227515  -0.00229811
  4:  -0.00004983   0.00337412  -0.00069617
  5:  -0.00215159  -0.00163635   0.00283354
  6:  -0.00084883  -0.00030984  -0.00308610
  7:  -0.00199912   0.00170349   0.00274823
  8:   0.00200685  -0.00166865   0.00118129
  9:  -0.00063498   0.00092859   0.00477707
 10:   0.00034811   0.00277925  -0.00274733
 11:   0.00069821  -0.00261542  -0.00146538
 12:   0.00386654  -0.00221247  -0.00267748
 13:  -0.00027418   0.00363978   0.00180660
 14:  -0.00336034  -0.00170676   0.00031670

-----------------------------------
NORM OF THE MP2 GRADIENT:  0.014944
-----------------------------------

-------------------------   --------------------
FINAL SINGLE POINT ENERGY      -381.698499186511
-------------------------   --------------------


                            ***************************************
                            *     ORCA property calculations      *
                            ***************************************

                                    ---------------------
                                    Active property flags
                                    ---------------------
   (+) Dipole Moment


------------------------------------------------------------------------------
                       ORCA ELECTRIC PROPERTIES CALCULATION
------------------------------------------------------------------------------

Dipole Moment Calculation                       ... on
Quadrupole Moment Calculation                   ... off
Polarizability Calculation                      ... off
GBWName                                         ... 5h2o.temelso.etal-orca.engrad-mp2.augccpvtz_job7.gbw
Electron density file                           ... 5h2o.temelso.etal-orca.engrad-mp2.augccpvtz_job7.scfp
The origin for moment calculation is the CENTER OF MASS  = (-0.000005,  0.000000  0.000005)

-------------
DIPOLE MOMENT
-------------
                                X             Y             Z
Electronic contribution:      0.28925      -0.03591      -0.32790
Nuclear contribution   :     -1.35433       0.13567       1.36782
                        -----------------------------------------
Total Dipole Moment    :     -1.06508       0.09976       1.03992
                        -----------------------------------------
Magnitude (a.u.)       :      1.49191
Magnitude (Debye)      :      3.79212



--------------------
Rotational spectrum 
--------------------
 
Rotational constants in cm-1:     0.091273     0.053866     0.041611 
Rotational constants in MHz :  2736.310298  1614.852455  1247.467071 

 Dipole components along the rotational axes: 
x,y,z [a.u.] :    -0.078918    -0.945227     1.151564 
x,y,z [Debye]:    -0.200593    -2.402576     2.927043 

 

                         *** MP2 UNRELAXED DENSITY ***

------------------------------------------------------------------------------
                       ORCA ELECTRIC PROPERTIES CALCULATION
------------------------------------------------------------------------------

Dipole Moment Calculation                       ... on
Quadrupole Moment Calculation                   ... off
Polarizability Calculation                      ... off
GBWName                                         ... 5h2o.temelso.etal-orca.engrad-mp2.augccpvtz_job7.gbw
Electron density file                           ... 5h2o.temelso.etal-orca.engrad-mp2.augccpvtz_job7.pmp2ur
The origin for moment calculation is the CENTER OF MASS  = (-0.000005,  0.000000  0.000005)

-------------
DIPOLE MOMENT
-------------
                                X             Y             Z
Electronic contribution:      0.31138      -0.03830      -0.35170
Nuclear contribution   :     -1.35433       0.13567       1.36782
                        -----------------------------------------
Total Dipole Moment    :     -1.04296       0.09737       1.01612
                        -----------------------------------------
Magnitude (a.u.)       :      1.45936
Magnitude (Debye)      :      3.70941



--------------------
Rotational spectrum 
--------------------
 
Rotational constants in cm-1:     0.091273     0.053866     0.041611 
Rotational constants in MHz :  2736.310298  1614.852455  1247.467071 

 Dipole components along the rotational axes: 
x,y,z [a.u.] :    -0.077464    -0.925807     1.125445 
x,y,z [Debye]:    -0.196897    -2.353214     2.860654 

 

                           *** MP2 RELAXED DENSITY ***

------------------------------------------------------------------------------
                       ORCA ELECTRIC PROPERTIES CALCULATION
------------------------------------------------------------------------------

Dipole Moment Calculation                       ... on
Quadrupole Moment Calculation                   ... off
Polarizability Calculation                      ... off
GBWName                                         ... 5h2o.temelso.etal-orca.engrad-mp2.augccpvtz_job7.gbw
Electron density file                           ... 5h2o.temelso.etal-orca.engrad-mp2.augccpvtz_job7.pmp2re
The origin for moment calculation is the CENTER OF MASS  = (-0.000005,  0.000000  0.000005)

-------------
DIPOLE MOMENT
-------------
                                X             Y             Z
Electronic contribution:      0.35621      -0.04416      -0.39202
Nuclear contribution   :     -1.35433       0.13567       1.36782
                        -----------------------------------------
Total Dipole Moment    :     -0.99812       0.09151       0.97580
                        -----------------------------------------
Magnitude (a.u.)       :      1.39886
Magnitude (Debye)      :      3.55561



--------------------
Rotational spectrum 
--------------------
 
Rotational constants in cm-1:     0.091273     0.053866     0.041611 
Rotational constants in MHz :  2736.310298  1614.852455  1247.467071 

 Dipole components along the rotational axes: 
x,y,z [a.u.] :    -0.075988    -0.885450     1.080278 
x,y,z [Debye]:    -0.193146    -2.250636     2.745848 

 

Timings for individual modules:

Sum of individual times         ...      531.810 sec (=   8.863 min)
GTO integral calculation        ...        1.162 sec (=   0.019 min)   0.2 %
SCF iterations                  ...       73.141 sec (=   1.219 min)  13.8 %
MP2 module                      ...      457.506 sec (=   7.625 min)  86.0 %



                             ****ORCA TERMINATED NORMALLY****
TOTAL RUN TIME: 0 days 1 hours 3 minutes 51 seconds 25 msec
