
                                 *****************
                                 * O   R   C   A *
                                 *****************

           --- An Ab Initio, DFT and Semiempirical electronic structure package ---

                  #######################################################
                  #                        -***-                        #
                  #          Department of theory and spectroscopy      #
                  #               Directorship: Frank Neese             #
                  #        Max Planck Institute fuer Kohlenforschung    #
                  #                Kaiser Wilhelm Platz 1               #
                  #                 D-45470 Muelheim/Ruhr               #
                  #                      Germany                        #
                  #                                                     #
                  #                  All rights reserved                #
                  #                        -***-                        #
                  #######################################################


                         Program Version 4.2.0 -  RELEASE  -


 With contributions from (in alphabetic order):
   Daniel Aravena         : Magnetic Suceptibility
   Michael Atanasov       : Ab Initio Ligand Field Theory (pilot matlab implementation)
   Alexander A. Auer      : GIAO ZORA, VPT2
   Ute Becker             : Parallelization
   Giovanni Bistoni       : ED, misc. LED, open-shell LED, HFLED
   Martin Brehm           : Molecular dynamics
   Dmytro Bykov           : SCF Hessian
   Vijay G. Chilkuri      : MRCI spin determinant printing, contributions to CSF-ICE
   Dipayan Datta          : RHF DLPNO-CCSD density
   Achintya Kumar Dutta   : EOM-CC, STEOM-CC
   Dmitry Ganyushin       : Spin-Orbit,Spin-Spin,Magnetic field MRCI
   Miquel Garcia          : C-PCM Hessian, Gaussian charge scheme
   Yang Guo               : DLPNO-NEVPT2, CIM, IAO-localization
   Andreas Hansen         : Spin unrestricted coupled pair/coupled cluster methods
   Benjamin Helmich-Paris : CASSCF linear response (MC-RPA)
   Lee Huntington         : MR-EOM, pCC
   Robert Izsak           : Overlap fitted RIJCOSX, COSX-SCS-MP3, EOM
   Christian Kollmar      : KDIIS, OOCD, Brueckner-CCSD(T), CCSD density
   Simone Kossmann        : Meta GGA functionals, TD-DFT gradient, OOMP2, MP2 Hessian
   Martin Krupicka        : AUTO-CI
   Lucas Lang             : DCDCAS
   Dagmar Lenk            : GEPOL surface, SMD
   Dimitrios Liakos       : Extrapolation schemes; Compound Job, initial MDCI parallelization
   Dimitrios Manganas     : Further ROCIS development; embedding schemes
   Dimitrios Pantazis     : SARC Basis sets
   Taras Petrenko         : DFT Hessian,TD-DFT gradient, ASA, ECA, R-Raman, ABS, FL, XAS/XES, NRVS
   Peter Pinski           : DLPNO-MP2, DLPNO-MP2 Gradient
   Christoph Reimann      : Effective Core Potentials
   Marius Retegan         : Local ZFS, SOC
   Christoph Riplinger    : Optimizer, TS searches, QM/MM, DLPNO-CCSD(T), (RO)-DLPNO pert. Triples
   Tobias Risthaus        : Range-separated hybrids, TD-DFT gradient, RPA, STAB
   Michael Roemelt        : Original ROCIS implementation
   Masaaki Saitow         : Open-shell DLPNO-CCSD energy and density
   Barbara Sandhoefer     : DKH picture change effects
   Avijit Sen             : IP-ROCIS
   Kantharuban Sivalingam : CASSCF convergence, NEVPT2, FIC-MRCI
   Bernardo de Souza      : ESD, SOC TD-DFT
   Georgi Stoychev        : AutoAux, RI-MP2 NMR
   Willem Van den Heuvel  : Paramagnetic NMR
   Boris Wezisla          : Elementary symmetry handling
   Frank Wennmohs         : Technical directorship


 We gratefully acknowledge several colleagues who have allowed us to
 interface, adapt or use parts of their codes:
   Stefan Grimme, W. Hujo, H. Kruse,             : VdW corrections, initial TS optimization,
                  C. Bannwarth                     DFT functionals, gCP, sTDA/sTD-DF
   Ed Valeev, F. Pavosevic, A. Kumar             : LibInt (2-el integral package), F12 methods
   Garnet Chan, S. Sharma, J. Yang, R. Olivares  : DMRG
   Ulf Ekstrom                                   : XCFun DFT Library
   Mihaly Kallay                                 : mrcc  (arbitrary order and MRCC methods)
   Andreas Klamt, Michael Diedenhofen            : otool_cosmo (COSMO solvation model)
   Jiri Pittner, Ondrej Demel                    : Mk-CCSD
   Frank Weinhold                                : gennbo (NPA and NBO analysis)
   Christopher J. Cramer and Donald G. Truhlar   : smd solvation model
   Lars Goerigk                                  : TD-DFT with DH, B97 family of functionals
   V. Asgeirsson, H. Jonsson                     : NEB implementation
   FAccTs GmbH                                   : IRC, NEB, NEB-TS, Multilevel, MM, QM/MM, CI optimization
   S Lehtola, MJT Oliveira, MAL Marques          : LibXC Library


 Your calculation uses the libint2 library for the computation of 2-el integrals
 For citations please refer to: http://libint.valeyev.net

 Your ORCA version has been built with support for libXC version: 4.2.3
 For citations please refer to: https://tddft.org/programs/libxc/

 This ORCA versions uses:
   CBLAS   interface :  Fast vector & matrix operations
   LAPACKE interface :  Fast linear algebra routines
   SCALAPACK package :  Parallel linear algebra routines


----- Orbital basis set information -----
Your calculation utilizes the basis: aug-cc-pVTZ 
    H, B-Ne : Obtained from the ccRepo (grant-hill.group.shef.ac.uk/ccrepo) Feb. 2017
              R. A. Kendall, T. H. Dunning, Jr., R. J. Harrison, J. Chem. Phys. 96, 6796 (1992)
         He : Obtained from the ccRepo (grant-hill.group.shef.ac.uk/ccrepo) Feb. 2017
              D. E. Woon, T. H. Dunning, Jr., J. Chem. Phys. 100, 2975 (1994)
  Li-Be, Na : Obtained from the ccRepo (grant-hill.group.shef.ac.uk/ccrepo) Feb. 2017
              B. P. Prascher, D. E. Woon, K. A. Peterson, T. H. Dunning, Jr., A. K. Wilson, Theor. Chem. Acc. 128, 69 (2011)
         Mg : Obtained from the Peterson Research Group Website (tyr0.chem.wsu.edu/~kipeters) Feb. 2017
              B. P. Prascher, D. E. Woon, K. A. Peterson, T. H. Dunning, Jr., A. K. Wilson, Theor. Chem. Acc. 128, 69 (2011)
      Al-Ar : Obtained from the ccRepo (grant-hill.group.shef.ac.uk/ccrepo) Feb. 2017
              D. E. Woon, T. H. Dunning, Jr., J. Chem. Phys. 98, 1358 (1993)
      Sc-Zn : Obtained from the ccRepo (grant-hill.group.shef.ac.uk/ccrepo) Feb. 2017
              N. B. Balabanov, K. A. Peterson, J. Chem. Phys. 123, 064107 (2005)
              N. B. Balabanov, K. A. Peterson, J. Chem. Phys. 125, 074110 (2006)
      Ga-Kr : Obtained from the ccRepo (grant-hill.group.shef.ac.uk/ccrepo) Feb. 2017
              A. K. Wilson, D. E. Woon, K. A. Peterson, T. H. Dunning, Jr., J. Chem. Phys. 110, 7667 (1999)
     Ag, Au : Obtained from the Peterson Research Group Website (tyr0.chem.wsu.edu/~kipeters) Feb. 2017
              K. A. Peterson, C. Puzzarini, Theor. Chem. Acc. 114, 283 (2005)

================================================================================
                                        WARNINGS
                       Please study these warnings very carefully!
================================================================================


WARNING: The frozen-core approximation for MP2-gradient calculations is turned on by default.

INFO   : the flag for use of LIBINT has been found!

----- Orbital basis set information -----
Your calculation utilizes the basis: aug-cc-pVTZ 
    H, B-Ne : Obtained from the ccRepo (grant-hill.group.shef.ac.uk/ccrepo) Feb. 2017
              R. A. Kendall, T. H. Dunning, Jr., R. J. Harrison, J. Chem. Phys. 96, 6796 (1992)
         He : Obtained from the ccRepo (grant-hill.group.shef.ac.uk/ccrepo) Feb. 2017
              D. E. Woon, T. H. Dunning, Jr., J. Chem. Phys. 100, 2975 (1994)
  Li-Be, Na : Obtained from the ccRepo (grant-hill.group.shef.ac.uk/ccrepo) Feb. 2017
              B. P. Prascher, D. E. Woon, K. A. Peterson, T. H. Dunning, Jr., A. K. Wilson, Theor. Chem. Acc. 128, 69 (2011)
         Mg : Obtained from the Peterson Research Group Website (tyr0.chem.wsu.edu/~kipeters) Feb. 2017
              B. P. Prascher, D. E. Woon, K. A. Peterson, T. H. Dunning, Jr., A. K. Wilson, Theor. Chem. Acc. 128, 69 (2011)
      Al-Ar : Obtained from the ccRepo (grant-hill.group.shef.ac.uk/ccrepo) Feb. 2017
              D. E. Woon, T. H. Dunning, Jr., J. Chem. Phys. 98, 1358 (1993)
      Sc-Zn : Obtained from the ccRepo (grant-hill.group.shef.ac.uk/ccrepo) Feb. 2017
              N. B. Balabanov, K. A. Peterson, J. Chem. Phys. 123, 064107 (2005)
              N. B. Balabanov, K. A. Peterson, J. Chem. Phys. 125, 074110 (2006)
      Ga-Kr : Obtained from the ccRepo (grant-hill.group.shef.ac.uk/ccrepo) Feb. 2017
              A. K. Wilson, D. E. Woon, K. A. Peterson, T. H. Dunning, Jr., J. Chem. Phys. 110, 7667 (1999)
     Ag, Au : Obtained from the Peterson Research Group Website (tyr0.chem.wsu.edu/~kipeters) Feb. 2017
              K. A. Peterson, C. Puzzarini, Theor. Chem. Acc. 114, 283 (2005)

================================================================================
                                        WARNINGS
                       Please study these warnings very carefully!
================================================================================


WARNING: The frozen-core approximation for MP2-gradient calculations is turned on by default.

INFO   : the flag for use of LIBINT has been found!

----- Orbital basis set information -----
Your calculation utilizes the basis: aug-cc-pVTZ 
    H, B-Ne : Obtained from the ccRepo (grant-hill.group.shef.ac.uk/ccrepo) Feb. 2017
              R. A. Kendall, T. H. Dunning, Jr., R. J. Harrison, J. Chem. Phys. 96, 6796 (1992)
         He : Obtained from the ccRepo (grant-hill.group.shef.ac.uk/ccrepo) Feb. 2017
              D. E. Woon, T. H. Dunning, Jr., J. Chem. Phys. 100, 2975 (1994)
  Li-Be, Na : Obtained from the ccRepo (grant-hill.group.shef.ac.uk/ccrepo) Feb. 2017
              B. P. Prascher, D. E. Woon, K. A. Peterson, T. H. Dunning, Jr., A. K. Wilson, Theor. Chem. Acc. 128, 69 (2011)
         Mg : Obtained from the Peterson Research Group Website (tyr0.chem.wsu.edu/~kipeters) Feb. 2017
              B. P. Prascher, D. E. Woon, K. A. Peterson, T. H. Dunning, Jr., A. K. Wilson, Theor. Chem. Acc. 128, 69 (2011)
      Al-Ar : Obtained from the ccRepo (grant-hill.group.shef.ac.uk/ccrepo) Feb. 2017
              D. E. Woon, T. H. Dunning, Jr., J. Chem. Phys. 98, 1358 (1993)
      Sc-Zn : Obtained from the ccRepo (grant-hill.group.shef.ac.uk/ccrepo) Feb. 2017
              N. B. Balabanov, K. A. Peterson, J. Chem. Phys. 123, 064107 (2005)
              N. B. Balabanov, K. A. Peterson, J. Chem. Phys. 125, 074110 (2006)
      Ga-Kr : Obtained from the ccRepo (grant-hill.group.shef.ac.uk/ccrepo) Feb. 2017
              A. K. Wilson, D. E. Woon, K. A. Peterson, T. H. Dunning, Jr., J. Chem. Phys. 110, 7667 (1999)
     Ag, Au : Obtained from the Peterson Research Group Website (tyr0.chem.wsu.edu/~kipeters) Feb. 2017
              K. A. Peterson, C. Puzzarini, Theor. Chem. Acc. 114, 283 (2005)

================================================================================
                                        WARNINGS
                       Please study these warnings very carefully!
================================================================================


WARNING: The frozen-core approximation for MP2-gradient calculations is turned on by default.

INFO   : the flag for use of LIBINT has been found!

----- Orbital basis set information -----
Your calculation utilizes the basis: aug-cc-pVTZ 
    H, B-Ne : Obtained from the ccRepo (grant-hill.group.shef.ac.uk/ccrepo) Feb. 2017
              R. A. Kendall, T. H. Dunning, Jr., R. J. Harrison, J. Chem. Phys. 96, 6796 (1992)
         He : Obtained from the ccRepo (grant-hill.group.shef.ac.uk/ccrepo) Feb. 2017
              D. E. Woon, T. H. Dunning, Jr., J. Chem. Phys. 100, 2975 (1994)
  Li-Be, Na : Obtained from the ccRepo (grant-hill.group.shef.ac.uk/ccrepo) Feb. 2017
              B. P. Prascher, D. E. Woon, K. A. Peterson, T. H. Dunning, Jr., A. K. Wilson, Theor. Chem. Acc. 128, 69 (2011)
         Mg : Obtained from the Peterson Research Group Website (tyr0.chem.wsu.edu/~kipeters) Feb. 2017
              B. P. Prascher, D. E. Woon, K. A. Peterson, T. H. Dunning, Jr., A. K. Wilson, Theor. Chem. Acc. 128, 69 (2011)
      Al-Ar : Obtained from the ccRepo (grant-hill.group.shef.ac.uk/ccrepo) Feb. 2017
              D. E. Woon, T. H. Dunning, Jr., J. Chem. Phys. 98, 1358 (1993)
      Sc-Zn : Obtained from the ccRepo (grant-hill.group.shef.ac.uk/ccrepo) Feb. 2017
              N. B. Balabanov, K. A. Peterson, J. Chem. Phys. 123, 064107 (2005)
              N. B. Balabanov, K. A. Peterson, J. Chem. Phys. 125, 074110 (2006)
      Ga-Kr : Obtained from the ccRepo (grant-hill.group.shef.ac.uk/ccrepo) Feb. 2017
              A. K. Wilson, D. E. Woon, K. A. Peterson, T. H. Dunning, Jr., J. Chem. Phys. 110, 7667 (1999)
     Ag, Au : Obtained from the Peterson Research Group Website (tyr0.chem.wsu.edu/~kipeters) Feb. 2017
              K. A. Peterson, C. Puzzarini, Theor. Chem. Acc. 114, 283 (2005)

================================================================================
                                        WARNINGS
                       Please study these warnings very carefully!
================================================================================


WARNING: The frozen-core approximation for MP2-gradient calculations is turned on by default.

INFO   : the flag for use of LIBINT has been found!

----- Orbital basis set information -----
Your calculation utilizes the basis: aug-cc-pVTZ 
    H, B-Ne : Obtained from the ccRepo (grant-hill.group.shef.ac.uk/ccrepo) Feb. 2017
              R. A. Kendall, T. H. Dunning, Jr., R. J. Harrison, J. Chem. Phys. 96, 6796 (1992)
         He : Obtained from the ccRepo (grant-hill.group.shef.ac.uk/ccrepo) Feb. 2017
              D. E. Woon, T. H. Dunning, Jr., J. Chem. Phys. 100, 2975 (1994)
  Li-Be, Na : Obtained from the ccRepo (grant-hill.group.shef.ac.uk/ccrepo) Feb. 2017
              B. P. Prascher, D. E. Woon, K. A. Peterson, T. H. Dunning, Jr., A. K. Wilson, Theor. Chem. Acc. 128, 69 (2011)
         Mg : Obtained from the Peterson Research Group Website (tyr0.chem.wsu.edu/~kipeters) Feb. 2017
              B. P. Prascher, D. E. Woon, K. A. Peterson, T. H. Dunning, Jr., A. K. Wilson, Theor. Chem. Acc. 128, 69 (2011)
      Al-Ar : Obtained from the ccRepo (grant-hill.group.shef.ac.uk/ccrepo) Feb. 2017
              D. E. Woon, T. H. Dunning, Jr., J. Chem. Phys. 98, 1358 (1993)
      Sc-Zn : Obtained from the ccRepo (grant-hill.group.shef.ac.uk/ccrepo) Feb. 2017
              N. B. Balabanov, K. A. Peterson, J. Chem. Phys. 123, 064107 (2005)
              N. B. Balabanov, K. A. Peterson, J. Chem. Phys. 125, 074110 (2006)
      Ga-Kr : Obtained from the ccRepo (grant-hill.group.shef.ac.uk/ccrepo) Feb. 2017
              A. K. Wilson, D. E. Woon, K. A. Peterson, T. H. Dunning, Jr., J. Chem. Phys. 110, 7667 (1999)
     Ag, Au : Obtained from the Peterson Research Group Website (tyr0.chem.wsu.edu/~kipeters) Feb. 2017
              K. A. Peterson, C. Puzzarini, Theor. Chem. Acc. 114, 283 (2005)

================================================================================
                                        WARNINGS
                       Please study these warnings very carefully!
================================================================================


WARNING: The frozen-core approximation for MP2-gradient calculations is turned on by default.

INFO   : the flag for use of LIBINT has been found!

----- Orbital basis set information -----
Your calculation utilizes the basis: aug-cc-pVTZ 
    H, B-Ne : Obtained from the ccRepo (grant-hill.group.shef.ac.uk/ccrepo) Feb. 2017
              R. A. Kendall, T. H. Dunning, Jr., R. J. Harrison, J. Chem. Phys. 96, 6796 (1992)
         He : Obtained from the ccRepo (grant-hill.group.shef.ac.uk/ccrepo) Feb. 2017
              D. E. Woon, T. H. Dunning, Jr., J. Chem. Phys. 100, 2975 (1994)
  Li-Be, Na : Obtained from the ccRepo (grant-hill.group.shef.ac.uk/ccrepo) Feb. 2017
              B. P. Prascher, D. E. Woon, K. A. Peterson, T. H. Dunning, Jr., A. K. Wilson, Theor. Chem. Acc. 128, 69 (2011)
         Mg : Obtained from the Peterson Research Group Website (tyr0.chem.wsu.edu/~kipeters) Feb. 2017
              B. P. Prascher, D. E. Woon, K. A. Peterson, T. H. Dunning, Jr., A. K. Wilson, Theor. Chem. Acc. 128, 69 (2011)
      Al-Ar : Obtained from the ccRepo (grant-hill.group.shef.ac.uk/ccrepo) Feb. 2017
              D. E. Woon, T. H. Dunning, Jr., J. Chem. Phys. 98, 1358 (1993)
      Sc-Zn : Obtained from the ccRepo (grant-hill.group.shef.ac.uk/ccrepo) Feb. 2017
              N. B. Balabanov, K. A. Peterson, J. Chem. Phys. 123, 064107 (2005)
              N. B. Balabanov, K. A. Peterson, J. Chem. Phys. 125, 074110 (2006)
      Ga-Kr : Obtained from the ccRepo (grant-hill.group.shef.ac.uk/ccrepo) Feb. 2017
              A. K. Wilson, D. E. Woon, K. A. Peterson, T. H. Dunning, Jr., J. Chem. Phys. 110, 7667 (1999)
     Ag, Au : Obtained from the Peterson Research Group Website (tyr0.chem.wsu.edu/~kipeters) Feb. 2017
              K. A. Peterson, C. Puzzarini, Theor. Chem. Acc. 114, 283 (2005)

================================================================================
                                        WARNINGS
                       Please study these warnings very carefully!
================================================================================


WARNING: The frozen-core approximation for MP2-gradient calculations is turned on by default.

INFO   : the flag for use of LIBINT has been found!

----- Orbital basis set information -----
Your calculation utilizes the basis: aug-cc-pVTZ 
    H, B-Ne : Obtained from the ccRepo (grant-hill.group.shef.ac.uk/ccrepo) Feb. 2017
              R. A. Kendall, T. H. Dunning, Jr., R. J. Harrison, J. Chem. Phys. 96, 6796 (1992)
         He : Obtained from the ccRepo (grant-hill.group.shef.ac.uk/ccrepo) Feb. 2017
              D. E. Woon, T. H. Dunning, Jr., J. Chem. Phys. 100, 2975 (1994)
  Li-Be, Na : Obtained from the ccRepo (grant-hill.group.shef.ac.uk/ccrepo) Feb. 2017
              B. P. Prascher, D. E. Woon, K. A. Peterson, T. H. Dunning, Jr., A. K. Wilson, Theor. Chem. Acc. 128, 69 (2011)
         Mg : Obtained from the Peterson Research Group Website (tyr0.chem.wsu.edu/~kipeters) Feb. 2017
              B. P. Prascher, D. E. Woon, K. A. Peterson, T. H. Dunning, Jr., A. K. Wilson, Theor. Chem. Acc. 128, 69 (2011)
      Al-Ar : Obtained from the ccRepo (grant-hill.group.shef.ac.uk/ccrepo) Feb. 2017
              D. E. Woon, T. H. Dunning, Jr., J. Chem. Phys. 98, 1358 (1993)
      Sc-Zn : Obtained from the ccRepo (grant-hill.group.shef.ac.uk/ccrepo) Feb. 2017
              N. B. Balabanov, K. A. Peterson, J. Chem. Phys. 123, 064107 (2005)
              N. B. Balabanov, K. A. Peterson, J. Chem. Phys. 125, 074110 (2006)
      Ga-Kr : Obtained from the ccRepo (grant-hill.group.shef.ac.uk/ccrepo) Feb. 2017
              A. K. Wilson, D. E. Woon, K. A. Peterson, T. H. Dunning, Jr., J. Chem. Phys. 110, 7667 (1999)
     Ag, Au : Obtained from the Peterson Research Group Website (tyr0.chem.wsu.edu/~kipeters) Feb. 2017
              K. A. Peterson, C. Puzzarini, Theor. Chem. Acc. 114, 283 (2005)

================================================================================
                                        WARNINGS
                       Please study these warnings very carefully!
================================================================================


WARNING: The frozen-core approximation for MP2-gradient calculations is turned on by default.

INFO   : the flag for use of LIBINT has been found!

----- Orbital basis set information -----
Your calculation utilizes the basis: aug-cc-pVTZ 
    H, B-Ne : Obtained from the ccRepo (grant-hill.group.shef.ac.uk/ccrepo) Feb. 2017
              R. A. Kendall, T. H. Dunning, Jr., R. J. Harrison, J. Chem. Phys. 96, 6796 (1992)
         He : Obtained from the ccRepo (grant-hill.group.shef.ac.uk/ccrepo) Feb. 2017
              D. E. Woon, T. H. Dunning, Jr., J. Chem. Phys. 100, 2975 (1994)
  Li-Be, Na : Obtained from the ccRepo (grant-hill.group.shef.ac.uk/ccrepo) Feb. 2017
              B. P. Prascher, D. E. Woon, K. A. Peterson, T. H. Dunning, Jr., A. K. Wilson, Theor. Chem. Acc. 128, 69 (2011)
         Mg : Obtained from the Peterson Research Group Website (tyr0.chem.wsu.edu/~kipeters) Feb. 2017
              B. P. Prascher, D. E. Woon, K. A. Peterson, T. H. Dunning, Jr., A. K. Wilson, Theor. Chem. Acc. 128, 69 (2011)
      Al-Ar : Obtained from the ccRepo (grant-hill.group.shef.ac.uk/ccrepo) Feb. 2017
              D. E. Woon, T. H. Dunning, Jr., J. Chem. Phys. 98, 1358 (1993)
      Sc-Zn : Obtained from the ccRepo (grant-hill.group.shef.ac.uk/ccrepo) Feb. 2017
              N. B. Balabanov, K. A. Peterson, J. Chem. Phys. 123, 064107 (2005)
              N. B. Balabanov, K. A. Peterson, J. Chem. Phys. 125, 074110 (2006)
      Ga-Kr : Obtained from the ccRepo (grant-hill.group.shef.ac.uk/ccrepo) Feb. 2017
              A. K. Wilson, D. E. Woon, K. A. Peterson, T. H. Dunning, Jr., J. Chem. Phys. 110, 7667 (1999)
     Ag, Au : Obtained from the Peterson Research Group Website (tyr0.chem.wsu.edu/~kipeters) Feb. 2017
              K. A. Peterson, C. Puzzarini, Theor. Chem. Acc. 114, 283 (2005)

================================================================================
                                        WARNINGS
                       Please study these warnings very carefully!
================================================================================


WARNING: The frozen-core approximation for MP2-gradient calculations is turned on by default.

INFO   : the flag for use of LIBINT has been found!

----- Orbital basis set information -----
Your calculation utilizes the basis: aug-cc-pVTZ 
    H, B-Ne : Obtained from the ccRepo (grant-hill.group.shef.ac.uk/ccrepo) Feb. 2017
              R. A. Kendall, T. H. Dunning, Jr., R. J. Harrison, J. Chem. Phys. 96, 6796 (1992)
         He : Obtained from the ccRepo (grant-hill.group.shef.ac.uk/ccrepo) Feb. 2017
              D. E. Woon, T. H. Dunning, Jr., J. Chem. Phys. 100, 2975 (1994)
  Li-Be, Na : Obtained from the ccRepo (grant-hill.group.shef.ac.uk/ccrepo) Feb. 2017
              B. P. Prascher, D. E. Woon, K. A. Peterson, T. H. Dunning, Jr., A. K. Wilson, Theor. Chem. Acc. 128, 69 (2011)
         Mg : Obtained from the Peterson Research Group Website (tyr0.chem.wsu.edu/~kipeters) Feb. 2017
              B. P. Prascher, D. E. Woon, K. A. Peterson, T. H. Dunning, Jr., A. K. Wilson, Theor. Chem. Acc. 128, 69 (2011)
      Al-Ar : Obtained from the ccRepo (grant-hill.group.shef.ac.uk/ccrepo) Feb. 2017
              D. E. Woon, T. H. Dunning, Jr., J. Chem. Phys. 98, 1358 (1993)
      Sc-Zn : Obtained from the ccRepo (grant-hill.group.shef.ac.uk/ccrepo) Feb. 2017
              N. B. Balabanov, K. A. Peterson, J. Chem. Phys. 123, 064107 (2005)
              N. B. Balabanov, K. A. Peterson, J. Chem. Phys. 125, 074110 (2006)
      Ga-Kr : Obtained from the ccRepo (grant-hill.group.shef.ac.uk/ccrepo) Feb. 2017
              A. K. Wilson, D. E. Woon, K. A. Peterson, T. H. Dunning, Jr., J. Chem. Phys. 110, 7667 (1999)
     Ag, Au : Obtained from the Peterson Research Group Website (tyr0.chem.wsu.edu/~kipeters) Feb. 2017
              K. A. Peterson, C. Puzzarini, Theor. Chem. Acc. 114, 283 (2005)

================================================================================
                                        WARNINGS
                       Please study these warnings very carefully!
================================================================================


WARNING: The frozen-core approximation for MP2-gradient calculations is turned on by default.

INFO   : the flag for use of LIBINT has been found!

----- Orbital basis set information -----
Your calculation utilizes the basis: aug-cc-pVTZ 
    H, B-Ne : Obtained from the ccRepo (grant-hill.group.shef.ac.uk/ccrepo) Feb. 2017
              R. A. Kendall, T. H. Dunning, Jr., R. J. Harrison, J. Chem. Phys. 96, 6796 (1992)
         He : Obtained from the ccRepo (grant-hill.group.shef.ac.uk/ccrepo) Feb. 2017
              D. E. Woon, T. H. Dunning, Jr., J. Chem. Phys. 100, 2975 (1994)
  Li-Be, Na : Obtained from the ccRepo (grant-hill.group.shef.ac.uk/ccrepo) Feb. 2017
              B. P. Prascher, D. E. Woon, K. A. Peterson, T. H. Dunning, Jr., A. K. Wilson, Theor. Chem. Acc. 128, 69 (2011)
         Mg : Obtained from the Peterson Research Group Website (tyr0.chem.wsu.edu/~kipeters) Feb. 2017
              B. P. Prascher, D. E. Woon, K. A. Peterson, T. H. Dunning, Jr., A. K. Wilson, Theor. Chem. Acc. 128, 69 (2011)
      Al-Ar : Obtained from the ccRepo (grant-hill.group.shef.ac.uk/ccrepo) Feb. 2017
              D. E. Woon, T. H. Dunning, Jr., J. Chem. Phys. 98, 1358 (1993)
      Sc-Zn : Obtained from the ccRepo (grant-hill.group.shef.ac.uk/ccrepo) Feb. 2017
              N. B. Balabanov, K. A. Peterson, J. Chem. Phys. 123, 064107 (2005)
              N. B. Balabanov, K. A. Peterson, J. Chem. Phys. 125, 074110 (2006)
      Ga-Kr : Obtained from the ccRepo (grant-hill.group.shef.ac.uk/ccrepo) Feb. 2017
              A. K. Wilson, D. E. Woon, K. A. Peterson, T. H. Dunning, Jr., J. Chem. Phys. 110, 7667 (1999)
     Ag, Au : Obtained from the Peterson Research Group Website (tyr0.chem.wsu.edu/~kipeters) Feb. 2017
              K. A. Peterson, C. Puzzarini, Theor. Chem. Acc. 114, 283 (2005)

================================================================================
                                        WARNINGS
                       Please study these warnings very carefully!
================================================================================


WARNING: The frozen-core approximation for MP2-gradient calculations is turned on by default.

INFO   : the flag for use of LIBINT has been found!

----- Orbital basis set information -----
Your calculation utilizes the basis: aug-cc-pVTZ 
    H, B-Ne : Obtained from the ccRepo (grant-hill.group.shef.ac.uk/ccrepo) Feb. 2017
              R. A. Kendall, T. H. Dunning, Jr., R. J. Harrison, J. Chem. Phys. 96, 6796 (1992)
         He : Obtained from the ccRepo (grant-hill.group.shef.ac.uk/ccrepo) Feb. 2017
              D. E. Woon, T. H. Dunning, Jr., J. Chem. Phys. 100, 2975 (1994)
  Li-Be, Na : Obtained from the ccRepo (grant-hill.group.shef.ac.uk/ccrepo) Feb. 2017
              B. P. Prascher, D. E. Woon, K. A. Peterson, T. H. Dunning, Jr., A. K. Wilson, Theor. Chem. Acc. 128, 69 (2011)
         Mg : Obtained from the Peterson Research Group Website (tyr0.chem.wsu.edu/~kipeters) Feb. 2017
              B. P. Prascher, D. E. Woon, K. A. Peterson, T. H. Dunning, Jr., A. K. Wilson, Theor. Chem. Acc. 128, 69 (2011)
      Al-Ar : Obtained from the ccRepo (grant-hill.group.shef.ac.uk/ccrepo) Feb. 2017
              D. E. Woon, T. H. Dunning, Jr., J. Chem. Phys. 98, 1358 (1993)
      Sc-Zn : Obtained from the ccRepo (grant-hill.group.shef.ac.uk/ccrepo) Feb. 2017
              N. B. Balabanov, K. A. Peterson, J. Chem. Phys. 123, 064107 (2005)
              N. B. Balabanov, K. A. Peterson, J. Chem. Phys. 125, 074110 (2006)
      Ga-Kr : Obtained from the ccRepo (grant-hill.group.shef.ac.uk/ccrepo) Feb. 2017
              A. K. Wilson, D. E. Woon, K. A. Peterson, T. H. Dunning, Jr., J. Chem. Phys. 110, 7667 (1999)
     Ag, Au : Obtained from the Peterson Research Group Website (tyr0.chem.wsu.edu/~kipeters) Feb. 2017
              K. A. Peterson, C. Puzzarini, Theor. Chem. Acc. 114, 283 (2005)

================================================================================
                                        WARNINGS
                       Please study these warnings very carefully!
================================================================================


WARNING: The frozen-core approximation for MP2-gradient calculations is turned on by default.

INFO   : the flag for use of LIBINT has been found!

----- Orbital basis set information -----
Your calculation utilizes the basis: aug-cc-pVTZ 
    H, B-Ne : Obtained from the ccRepo (grant-hill.group.shef.ac.uk/ccrepo) Feb. 2017
              R. A. Kendall, T. H. Dunning, Jr., R. J. Harrison, J. Chem. Phys. 96, 6796 (1992)
         He : Obtained from the ccRepo (grant-hill.group.shef.ac.uk/ccrepo) Feb. 2017
              D. E. Woon, T. H. Dunning, Jr., J. Chem. Phys. 100, 2975 (1994)
  Li-Be, Na : Obtained from the ccRepo (grant-hill.group.shef.ac.uk/ccrepo) Feb. 2017
              B. P. Prascher, D. E. Woon, K. A. Peterson, T. H. Dunning, Jr., A. K. Wilson, Theor. Chem. Acc. 128, 69 (2011)
         Mg : Obtained from the Peterson Research Group Website (tyr0.chem.wsu.edu/~kipeters) Feb. 2017
              B. P. Prascher, D. E. Woon, K. A. Peterson, T. H. Dunning, Jr., A. K. Wilson, Theor. Chem. Acc. 128, 69 (2011)
      Al-Ar : Obtained from the ccRepo (grant-hill.group.shef.ac.uk/ccrepo) Feb. 2017
              D. E. Woon, T. H. Dunning, Jr., J. Chem. Phys. 98, 1358 (1993)
      Sc-Zn : Obtained from the ccRepo (grant-hill.group.shef.ac.uk/ccrepo) Feb. 2017
              N. B. Balabanov, K. A. Peterson, J. Chem. Phys. 123, 064107 (2005)
              N. B. Balabanov, K. A. Peterson, J. Chem. Phys. 125, 074110 (2006)
      Ga-Kr : Obtained from the ccRepo (grant-hill.group.shef.ac.uk/ccrepo) Feb. 2017
              A. K. Wilson, D. E. Woon, K. A. Peterson, T. H. Dunning, Jr., J. Chem. Phys. 110, 7667 (1999)
     Ag, Au : Obtained from the Peterson Research Group Website (tyr0.chem.wsu.edu/~kipeters) Feb. 2017
              K. A. Peterson, C. Puzzarini, Theor. Chem. Acc. 114, 283 (2005)

================================================================================
                                        WARNINGS
                       Please study these warnings very carefully!
================================================================================


WARNING: The frozen-core approximation for MP2-gradient calculations is turned on by default.

INFO   : the flag for use of LIBINT has been found!

----- Orbital basis set information -----
Your calculation utilizes the basis: aug-cc-pVTZ 
    H, B-Ne : Obtained from the ccRepo (grant-hill.group.shef.ac.uk/ccrepo) Feb. 2017
              R. A. Kendall, T. H. Dunning, Jr., R. J. Harrison, J. Chem. Phys. 96, 6796 (1992)
         He : Obtained from the ccRepo (grant-hill.group.shef.ac.uk/ccrepo) Feb. 2017
              D. E. Woon, T. H. Dunning, Jr., J. Chem. Phys. 100, 2975 (1994)
  Li-Be, Na : Obtained from the ccRepo (grant-hill.group.shef.ac.uk/ccrepo) Feb. 2017
              B. P. Prascher, D. E. Woon, K. A. Peterson, T. H. Dunning, Jr., A. K. Wilson, Theor. Chem. Acc. 128, 69 (2011)
         Mg : Obtained from the Peterson Research Group Website (tyr0.chem.wsu.edu/~kipeters) Feb. 2017
              B. P. Prascher, D. E. Woon, K. A. Peterson, T. H. Dunning, Jr., A. K. Wilson, Theor. Chem. Acc. 128, 69 (2011)
      Al-Ar : Obtained from the ccRepo (grant-hill.group.shef.ac.uk/ccrepo) Feb. 2017
              D. E. Woon, T. H. Dunning, Jr., J. Chem. Phys. 98, 1358 (1993)
      Sc-Zn : Obtained from the ccRepo (grant-hill.group.shef.ac.uk/ccrepo) Feb. 2017
              N. B. Balabanov, K. A. Peterson, J. Chem. Phys. 123, 064107 (2005)
              N. B. Balabanov, K. A. Peterson, J. Chem. Phys. 125, 074110 (2006)
      Ga-Kr : Obtained from the ccRepo (grant-hill.group.shef.ac.uk/ccrepo) Feb. 2017
              A. K. Wilson, D. E. Woon, K. A. Peterson, T. H. Dunning, Jr., J. Chem. Phys. 110, 7667 (1999)
     Ag, Au : Obtained from the Peterson Research Group Website (tyr0.chem.wsu.edu/~kipeters) Feb. 2017
              K. A. Peterson, C. Puzzarini, Theor. Chem. Acc. 114, 283 (2005)

================================================================================
                                        WARNINGS
                       Please study these warnings very carefully!
================================================================================


WARNING: The frozen-core approximation for MP2-gradient calculations is turned on by default.

INFO   : the flag for use of LIBINT has been found!

----- Orbital basis set information -----
Your calculation utilizes the basis: aug-cc-pVTZ 
    H, B-Ne : Obtained from the ccRepo (grant-hill.group.shef.ac.uk/ccrepo) Feb. 2017
              R. A. Kendall, T. H. Dunning, Jr., R. J. Harrison, J. Chem. Phys. 96, 6796 (1992)
         He : Obtained from the ccRepo (grant-hill.group.shef.ac.uk/ccrepo) Feb. 2017
              D. E. Woon, T. H. Dunning, Jr., J. Chem. Phys. 100, 2975 (1994)
  Li-Be, Na : Obtained from the ccRepo (grant-hill.group.shef.ac.uk/ccrepo) Feb. 2017
              B. P. Prascher, D. E. Woon, K. A. Peterson, T. H. Dunning, Jr., A. K. Wilson, Theor. Chem. Acc. 128, 69 (2011)
         Mg : Obtained from the Peterson Research Group Website (tyr0.chem.wsu.edu/~kipeters) Feb. 2017
              B. P. Prascher, D. E. Woon, K. A. Peterson, T. H. Dunning, Jr., A. K. Wilson, Theor. Chem. Acc. 128, 69 (2011)
      Al-Ar : Obtained from the ccRepo (grant-hill.group.shef.ac.uk/ccrepo) Feb. 2017
              D. E. Woon, T. H. Dunning, Jr., J. Chem. Phys. 98, 1358 (1993)
      Sc-Zn : Obtained from the ccRepo (grant-hill.group.shef.ac.uk/ccrepo) Feb. 2017
              N. B. Balabanov, K. A. Peterson, J. Chem. Phys. 123, 064107 (2005)
              N. B. Balabanov, K. A. Peterson, J. Chem. Phys. 125, 074110 (2006)
      Ga-Kr : Obtained from the ccRepo (grant-hill.group.shef.ac.uk/ccrepo) Feb. 2017
              A. K. Wilson, D. E. Woon, K. A. Peterson, T. H. Dunning, Jr., J. Chem. Phys. 110, 7667 (1999)
     Ag, Au : Obtained from the Peterson Research Group Website (tyr0.chem.wsu.edu/~kipeters) Feb. 2017
              K. A. Peterson, C. Puzzarini, Theor. Chem. Acc. 114, 283 (2005)

================================================================================
                                        WARNINGS
                       Please study these warnings very carefully!
================================================================================


WARNING: The frozen-core approximation for MP2-gradient calculations is turned on by default.

INFO   : the flag for use of LIBINT has been found!

----- Orbital basis set information -----
Your calculation utilizes the basis: aug-cc-pVTZ 
    H, B-Ne : Obtained from the ccRepo (grant-hill.group.shef.ac.uk/ccrepo) Feb. 2017
              R. A. Kendall, T. H. Dunning, Jr., R. J. Harrison, J. Chem. Phys. 96, 6796 (1992)
         He : Obtained from the ccRepo (grant-hill.group.shef.ac.uk/ccrepo) Feb. 2017
              D. E. Woon, T. H. Dunning, Jr., J. Chem. Phys. 100, 2975 (1994)
  Li-Be, Na : Obtained from the ccRepo (grant-hill.group.shef.ac.uk/ccrepo) Feb. 2017
              B. P. Prascher, D. E. Woon, K. A. Peterson, T. H. Dunning, Jr., A. K. Wilson, Theor. Chem. Acc. 128, 69 (2011)
         Mg : Obtained from the Peterson Research Group Website (tyr0.chem.wsu.edu/~kipeters) Feb. 2017
              B. P. Prascher, D. E. Woon, K. A. Peterson, T. H. Dunning, Jr., A. K. Wilson, Theor. Chem. Acc. 128, 69 (2011)
      Al-Ar : Obtained from the ccRepo (grant-hill.group.shef.ac.uk/ccrepo) Feb. 2017
              D. E. Woon, T. H. Dunning, Jr., J. Chem. Phys. 98, 1358 (1993)
      Sc-Zn : Obtained from the ccRepo (grant-hill.group.shef.ac.uk/ccrepo) Feb. 2017
              N. B. Balabanov, K. A. Peterson, J. Chem. Phys. 123, 064107 (2005)
              N. B. Balabanov, K. A. Peterson, J. Chem. Phys. 125, 074110 (2006)
      Ga-Kr : Obtained from the ccRepo (grant-hill.group.shef.ac.uk/ccrepo) Feb. 2017
              A. K. Wilson, D. E. Woon, K. A. Peterson, T. H. Dunning, Jr., J. Chem. Phys. 110, 7667 (1999)
     Ag, Au : Obtained from the Peterson Research Group Website (tyr0.chem.wsu.edu/~kipeters) Feb. 2017
              K. A. Peterson, C. Puzzarini, Theor. Chem. Acc. 114, 283 (2005)

================================================================================
                                        WARNINGS
                       Please study these warnings very carefully!
================================================================================


WARNING: The frozen-core approximation for MP2-gradient calculations is turned on by default.

INFO   : the flag for use of LIBINT has been found!

----- Orbital basis set information -----
Your calculation utilizes the basis: aug-cc-pVTZ 
    H, B-Ne : Obtained from the ccRepo (grant-hill.group.shef.ac.uk/ccrepo) Feb. 2017
              R. A. Kendall, T. H. Dunning, Jr., R. J. Harrison, J. Chem. Phys. 96, 6796 (1992)
         He : Obtained from the ccRepo (grant-hill.group.shef.ac.uk/ccrepo) Feb. 2017
              D. E. Woon, T. H. Dunning, Jr., J. Chem. Phys. 100, 2975 (1994)
  Li-Be, Na : Obtained from the ccRepo (grant-hill.group.shef.ac.uk/ccrepo) Feb. 2017
              B. P. Prascher, D. E. Woon, K. A. Peterson, T. H. Dunning, Jr., A. K. Wilson, Theor. Chem. Acc. 128, 69 (2011)
         Mg : Obtained from the Peterson Research Group Website (tyr0.chem.wsu.edu/~kipeters) Feb. 2017
              B. P. Prascher, D. E. Woon, K. A. Peterson, T. H. Dunning, Jr., A. K. Wilson, Theor. Chem. Acc. 128, 69 (2011)
      Al-Ar : Obtained from the ccRepo (grant-hill.group.shef.ac.uk/ccrepo) Feb. 2017
              D. E. Woon, T. H. Dunning, Jr., J. Chem. Phys. 98, 1358 (1993)
      Sc-Zn : Obtained from the ccRepo (grant-hill.group.shef.ac.uk/ccrepo) Feb. 2017
              N. B. Balabanov, K. A. Peterson, J. Chem. Phys. 123, 064107 (2005)
              N. B. Balabanov, K. A. Peterson, J. Chem. Phys. 125, 074110 (2006)
      Ga-Kr : Obtained from the ccRepo (grant-hill.group.shef.ac.uk/ccrepo) Feb. 2017
              A. K. Wilson, D. E. Woon, K. A. Peterson, T. H. Dunning, Jr., J. Chem. Phys. 110, 7667 (1999)
     Ag, Au : Obtained from the Peterson Research Group Website (tyr0.chem.wsu.edu/~kipeters) Feb. 2017
              K. A. Peterson, C. Puzzarini, Theor. Chem. Acc. 114, 283 (2005)

================================================================================
                                        WARNINGS
                       Please study these warnings very carefully!
================================================================================


WARNING: The frozen-core approximation for MP2-gradient calculations is turned on by default.

INFO   : the flag for use of LIBINT has been found!

----- Orbital basis set information -----
Your calculation utilizes the basis: aug-cc-pVTZ 
    H, B-Ne : Obtained from the ccRepo (grant-hill.group.shef.ac.uk/ccrepo) Feb. 2017
              R. A. Kendall, T. H. Dunning, Jr., R. J. Harrison, J. Chem. Phys. 96, 6796 (1992)
         He : Obtained from the ccRepo (grant-hill.group.shef.ac.uk/ccrepo) Feb. 2017
              D. E. Woon, T. H. Dunning, Jr., J. Chem. Phys. 100, 2975 (1994)
  Li-Be, Na : Obtained from the ccRepo (grant-hill.group.shef.ac.uk/ccrepo) Feb. 2017
              B. P. Prascher, D. E. Woon, K. A. Peterson, T. H. Dunning, Jr., A. K. Wilson, Theor. Chem. Acc. 128, 69 (2011)
         Mg : Obtained from the Peterson Research Group Website (tyr0.chem.wsu.edu/~kipeters) Feb. 2017
              B. P. Prascher, D. E. Woon, K. A. Peterson, T. H. Dunning, Jr., A. K. Wilson, Theor. Chem. Acc. 128, 69 (2011)
      Al-Ar : Obtained from the ccRepo (grant-hill.group.shef.ac.uk/ccrepo) Feb. 2017
              D. E. Woon, T. H. Dunning, Jr., J. Chem. Phys. 98, 1358 (1993)
      Sc-Zn : Obtained from the ccRepo (grant-hill.group.shef.ac.uk/ccrepo) Feb. 2017
              N. B. Balabanov, K. A. Peterson, J. Chem. Phys. 123, 064107 (2005)
              N. B. Balabanov, K. A. Peterson, J. Chem. Phys. 125, 074110 (2006)
      Ga-Kr : Obtained from the ccRepo (grant-hill.group.shef.ac.uk/ccrepo) Feb. 2017
              A. K. Wilson, D. E. Woon, K. A. Peterson, T. H. Dunning, Jr., J. Chem. Phys. 110, 7667 (1999)
     Ag, Au : Obtained from the Peterson Research Group Website (tyr0.chem.wsu.edu/~kipeters) Feb. 2017
              K. A. Peterson, C. Puzzarini, Theor. Chem. Acc. 114, 283 (2005)

================================================================================
                                        WARNINGS
                       Please study these warnings very carefully!
================================================================================


WARNING: The frozen-core approximation for MP2-gradient calculations is turned on by default.

INFO   : the flag for use of LIBINT has been found!

----- Orbital basis set information -----
Your calculation utilizes the basis: aug-cc-pVTZ 
    H, B-Ne : Obtained from the ccRepo (grant-hill.group.shef.ac.uk/ccrepo) Feb. 2017
              R. A. Kendall, T. H. Dunning, Jr., R. J. Harrison, J. Chem. Phys. 96, 6796 (1992)
         He : Obtained from the ccRepo (grant-hill.group.shef.ac.uk/ccrepo) Feb. 2017
              D. E. Woon, T. H. Dunning, Jr., J. Chem. Phys. 100, 2975 (1994)
  Li-Be, Na : Obtained from the ccRepo (grant-hill.group.shef.ac.uk/ccrepo) Feb. 2017
              B. P. Prascher, D. E. Woon, K. A. Peterson, T. H. Dunning, Jr., A. K. Wilson, Theor. Chem. Acc. 128, 69 (2011)
         Mg : Obtained from the Peterson Research Group Website (tyr0.chem.wsu.edu/~kipeters) Feb. 2017
              B. P. Prascher, D. E. Woon, K. A. Peterson, T. H. Dunning, Jr., A. K. Wilson, Theor. Chem. Acc. 128, 69 (2011)
      Al-Ar : Obtained from the ccRepo (grant-hill.group.shef.ac.uk/ccrepo) Feb. 2017
              D. E. Woon, T. H. Dunning, Jr., J. Chem. Phys. 98, 1358 (1993)
      Sc-Zn : Obtained from the ccRepo (grant-hill.group.shef.ac.uk/ccrepo) Feb. 2017
              N. B. Balabanov, K. A. Peterson, J. Chem. Phys. 123, 064107 (2005)
              N. B. Balabanov, K. A. Peterson, J. Chem. Phys. 125, 074110 (2006)
      Ga-Kr : Obtained from the ccRepo (grant-hill.group.shef.ac.uk/ccrepo) Feb. 2017
              A. K. Wilson, D. E. Woon, K. A. Peterson, T. H. Dunning, Jr., J. Chem. Phys. 110, 7667 (1999)
     Ag, Au : Obtained from the Peterson Research Group Website (tyr0.chem.wsu.edu/~kipeters) Feb. 2017
              K. A. Peterson, C. Puzzarini, Theor. Chem. Acc. 114, 283 (2005)

================================================================================
                                        WARNINGS
                       Please study these warnings very carefully!
================================================================================


WARNING: The frozen-core approximation for MP2-gradient calculations is turned on by default.

INFO   : the flag for use of LIBINT has been found!

================================================================================
                                       INPUT FILE
================================================================================
NAME = 4h2o.temelso.etal.dset.2h2o-orca.engrad-mp2.augccpvtz.inp
|  1> # 4h2o.temelso.etal.dset.2h2o-orca.engrad-mp2.augccpvtz
|  2> ! MP2 aug-cc-pVTZ EnGrad TightSCF FrozenCore
|  3> 
|  4> %pal
|  5>     nprocs 12
|  6> end
|  7> 
|  8> %maxcore 8000
|  9> 
| 10> %scf
| 11>     ConvForced true
| 12> end
| 13> 
| 14> *xyz 0 1
| 15> O  -1.325577436  -0.018444737  -0.171803356
| 16> H  -1.743777436  -0.233044737  -1.014603356
| 17> H  -1.488777436   0.945055263  -0.048303356
| 18> O   1.399822564   0.019955263   0.183596644
| 19> H   0.442222564  -0.118844737  -0.001103356
| 20> H   1.611722564  -0.617144737   0.876796644
| 21> *
| 22> 
| 23> 
| 24> $new_job
| 25> 
| 26> # 4h2o.temelso.etal.dset.2h2o-orca.engrad-mp2.augccpvtz
| 27> ! MP2 aug-cc-pVTZ EnGrad TightSCF FrozenCore
| 28> 
| 29> %pal
| 30>     nprocs 12
| 31> end
| 32> 
| 33> %maxcore 8000
| 34> 
| 35> %scf
| 36>     ConvForced true
| 37> end
| 38> 
| 39> *xyz 0 1
| 40> O  -1.320717629  -1.380843136  -0.355459903
| 41> H  -1.738917629  -1.595443136  -1.198259903
| 42> H  -1.483917629  -0.417343136  -0.231959903
| 43> O   1.308482371   1.370056864   0.433940097
| 44> H   1.466682371   0.402156864   0.341840097
| 45> H   1.950382371   1.781856864  -0.157459903
| 46> *
| 47> 
| 48> 
| 49> $new_job
| 50> 
| 51> # 4h2o.temelso.etal.dset.2h2o-orca.engrad-mp2.augccpvtz
| 52> ! MP2 aug-cc-pVTZ EnGrad TightSCF FrozenCore
| 53> 
| 54> %pal
| 55>     nprocs 12
| 56> end
| 57> 
| 58> %maxcore 8000
| 59> 
| 60> %scf
| 61>     ConvForced true
| 62> end
| 63> 
| 64> *xyz 0 1
| 65> O   0.038424512  -1.403390050  -0.149950816
| 66> H  -0.379775488  -1.617990050  -0.992750816
| 67> H  -0.124775488  -0.439890050  -0.026450816
| 68> O  -0.035375488   1.328909950   0.140149184
| 69> H   0.927024512   1.471909950   0.293849184
| 70> H  -0.470875488   1.768309950   0.880949184
| 71> *
| 72> 
| 73> 
| 74> $new_job
| 75> 
| 76> # 4h2o.temelso.etal.dset.2h2o-orca.engrad-mp2.augccpvtz
| 77> ! MP2 aug-cc-pVTZ EnGrad TightSCF FrozenCore
| 78> 
| 79> %pal
| 80>     nprocs 12
| 81> end
| 82> 
| 83> %maxcore 8000
| 84> 
| 85> %scf
| 86>     ConvForced true
| 87> end
| 88> 
| 89> *xyz 0 1
| 90> O   0.046578285  -1.318990369  -0.212104778
| 91> H  -0.911021715  -1.457790369  -0.396804778
| 92> H   0.258478285  -1.956090369   0.481095222
| 93> O  -0.049621715   1.393509631   0.221895222
| 94> H   0.108578285   0.425609631   0.129795222
| 95> H   0.592278285   1.805309631  -0.369504778
| 96> *
| 97> 
| 98> 
| 99> $new_job
|100> 
|101> # 4h2o.temelso.etal.dset.2h2o-orca.engrad-mp2.augccpvtz
|102> ! MP2 aug-cc-pVTZ EnGrad TightSCF FrozenCore
|103> 
|104> %pal
|105>     nprocs 12
|106> end
|107> 
|108> %maxcore 8000
|109> 
|110> %scf
|111>     ConvForced true
|112> end
|113> 
|114> *xyz 0 1
|115> O   1.405720426  -1.341537283  -0.006595692
|116> H   0.448120426  -1.480337283  -0.191295692
|117> H   1.617620426  -1.978637283   0.686604308
|118> O  -1.393479574   1.352362717  -0.071895692
|119> H  -0.431079574   1.495362717   0.081804308
|120> H  -1.828979574   1.791762717   0.668904308
|121> *
|122> 
|123> 
|124> $new_job
|125> 
|126> # 4h2o.temelso.etal.dset.2h2o-orca.engrad-mp2.augccpvtz
|127> ! MP2 aug-cc-pVTZ EnGrad TightSCF FrozenCore
|128> 
|129> %pal
|130>     nprocs 12
|131> end
|132> 
|133> %maxcore 8000
|134> 
|135> %scf
|136>     ConvForced true
|137> end
|138> 
|139> *xyz 0 1
|140> O   1.314380233   0.008564318   0.243747761
|141> H   1.472580233  -0.959335682   0.151647761
|142> H   1.956280233   0.420364318  -0.347652239
|143> O  -1.388619767  -0.010035682  -0.255552239
|144> H  -0.426219767   0.132964318  -0.101852239
|145> H  -1.824119767   0.429364318   0.485247761
|146> *
|147> 
|148> 
|149> $new_job
|150> 
|151> # 4h2o.temelso.etal.dset.2h2o-orca.engrad-mp2.augccpvtz
|152> ! MP2 aug-cc-pVTZ EnGrad TightSCF FrozenCore
|153> 
|154> %pal
|155>     nprocs 12
|156> end
|157> 
|158> %maxcore 8000
|159> 
|160> %scf
|161>     ConvForced true
|162> end
|163> 
|164> *xyz 0 1
|165> O   0.036144320  -1.293436216  -0.342591114
|166> H   0.293244320  -1.960136216   0.305908886
|167> H  -0.925355680  -1.440636216  -0.493591114
|168> O  -0.043355680   1.364363784   0.354708886
|169> H   0.632944320   1.854963784  -0.127691114
|170> H   0.113644320   0.419863784   0.123008886
|171> *
|172> 
|173> 
|174> $new_job
|175> 
|176> # 4h2o.temelso.etal.dset.2h2o-orca.engrad-mp2.augccpvtz
|177> ! MP2 aug-cc-pVTZ EnGrad TightSCF FrozenCore
|178> 
|179> %pal
|180>     nprocs 12
|181> end
|182> 
|183> %maxcore 8000
|184> 
|185> %scf
|186>     ConvForced true
|187> end
|188> 
|189> *xyz 0 1
|190> O   1.398686014  -1.347836014  -0.120344405
|191> H   1.655786014  -2.014536014   0.528155595
|192> H   0.437186014  -1.495036014  -0.271344405
|193> O  -1.398713986   1.347863986   0.120355595
|194> H  -0.437213986   1.495063986   0.271755595
|195> H  -1.655313986   2.014063986  -0.528744405
|196> *
|197> 
|198> 
|199> $new_job
|200> 
|201> # 4h2o.temelso.etal.dset.2h2o-orca.engrad-mp2.augccpvtz
|202> ! MP2 aug-cc-pVTZ EnGrad TightSCF FrozenCore
|203> 
|204> %pal
|205>     nprocs 12
|206> end
|207> 
|208> %maxcore 8000
|209> 
|210> %scf
|211>     ConvForced true
|212> end
|213> 
|214> *xyz 0 1
|215> O   1.402052425  -0.008732627   0.193797093
|216> H   1.659152425  -0.675432627   0.842297093
|217> H   0.440552425  -0.155932627   0.042797093
|218> O  -1.316047575   0.028867373  -0.261602907
|219> H  -1.472947575   0.973367373  -0.030202907
|220> H  -1.992047575  -0.461632627   0.221497093
|221> *
|222> 
|223> 
|224> $new_job
|225> 
|226> # 4h2o.temelso.etal.dset.2h2o-orca.engrad-mp2.augccpvtz
|227> ! MP2 aug-cc-pVTZ EnGrad TightSCF FrozenCore
|228> 
|229> %pal
|230>     nprocs 12
|231> end
|232> 
|233> %maxcore 8000
|234> 
|235> %scf
|236>     ConvForced true
|237> end
|238> 
|239> *xyz 0 1
|240> O   1.315922400  -0.029006184   0.262197313
|241> H   1.992222400   0.461593816  -0.220202687
|242> H   1.472922400  -0.973506184   0.030497313
|243> O  -1.401977600   0.008893816  -0.194402687
|244> H  -0.440477600   0.156093816  -0.043002687
|245> H  -1.658577600   0.675093816  -0.843502687
|246> *
|247> 
|248> 
|249> $new_job
|250> 
|251> # 4h2o.temelso.etal.dset.2h2o-orca.engrad-mp2.augccpvtz
|252> ! MP2 aug-cc-pVTZ EnGrad TightSCF FrozenCore
|253> 
|254> %pal
|255>     nprocs 12
|256> end
|257> 
|258> %maxcore 8000
|259> 
|260> %scf
|261>     ConvForced true
|262> end
|263> 
|264> *xyz 0 1
|265> O   1.319288811   1.310097203   0.576338811
|266> H   1.995588811   1.800697203   0.093938811
|267> H   1.476288811   0.365597203   0.344638811
|268> O  -1.319311189  -1.310102797  -0.576361189
|269> H  -1.476211189  -0.365602797  -0.344961189
|270> H  -1.995311189  -1.800602797  -0.093261189
|271> *
|272> 
|273> 
|274> $new_job
|275> 
|276> # 4h2o.temelso.etal.dset.2h2o-orca.engrad-mp2.augccpvtz
|277> ! MP2 aug-cc-pVTZ EnGrad TightSCF FrozenCore
|278> 
|279> %pal
|280>     nprocs 12
|281> end
|282> 
|283> %maxcore 8000
|284> 
|285> %scf
|286>     ConvForced true
|287> end
|288> 
|289> *xyz 0 1
|290> O  -0.036069495   1.293597406   0.341985520
|291> H   0.925430505   1.440797406   0.493385520
|292> H  -0.292669495   1.959797406  -0.307114480
|293> O   0.043230505  -1.364502594  -0.354114480
|294> H  -0.113669495  -0.420002594  -0.122714480
|295> H  -0.632769495  -1.855002594   0.128985520
|296> *
|297> 
|298> 
|299> $new_job
|300> 
|301> # 4h2o.temelso.etal.dset.2h2o-orca.engrad-mp2.augccpvtz
|302> ! MP2 aug-cc-pVTZ EnGrad TightSCF FrozenCore
|303> 
|304> %pal
|305>     nprocs 12
|306> end
|307> 
|308> %maxcore 8000
|309> 
|310> %scf
|311>     ConvForced true
|312> end
|313> 
|314> *xyz 0 1
|315> O   1.663639687  -0.265031500  -0.064958127
|316> H   1.371039687   0.478068500  -0.628358127
|317> H   2.611439687  -0.137331500   0.059341873
|318> O  -1.736760313   0.262368500   0.057841873
|319> H  -1.437660313   0.284768500   0.976341873
|320> H  -1.384060313  -0.583231500  -0.294358127
|321> *
|322> 
|323> 
|324> $new_job
|325> 
|326> # 4h2o.temelso.etal.dset.2h2o-orca.engrad-mp2.augccpvtz
|327> ! MP2 aug-cc-pVTZ EnGrad TightSCF FrozenCore
|328> 
|329> %pal
|330>     nprocs 12
|331> end
|332> 
|333> %maxcore 8000
|334> 
|335> %scf
|336>     ConvForced true
|337> end
|338> 
|339> *xyz 0 1
|340> O   0.807451537  -0.846720309   0.823044510
|341> H   0.514851537  -0.103620309   0.259644510
|342> H   1.755251537  -0.719020309   0.947344510
|343> O  -0.795848463   0.756379691  -0.814255490
|344> H  -1.537448463   0.609679691  -0.183155490
|345> H  -0.916848463   1.647079691  -1.163355490
|346> *
|347> 
|348> 
|349> $new_job
|350> 
|351> # 4h2o.temelso.etal.dset.2h2o-orca.engrad-mp2.augccpvtz
|352> ! MP2 aug-cc-pVTZ EnGrad TightSCF FrozenCore
|353> 
|354> %pal
|355>     nprocs 12
|356> end
|357> 
|358> %maxcore 8000
|359> 
|360> %scf
|361>     ConvForced true
|362> end
|363> 
|364> *xyz 0 1
|365> O   0.962971347   0.656749926   0.732500800
|366> H   0.670371347   1.399849926   0.169100800
|367> H   1.910771347   0.784449926   0.856800800
|368> O  -1.049328653  -0.750850074  -0.694799200
|369> H  -1.014828653  -0.068250074  -1.382499200
|370> H  -0.195428653  -0.622250074  -0.241899200
|371> *
|372> 
|373> 
|374> $new_job
|375> 
|376> # 4h2o.temelso.etal.dset.2h2o-orca.engrad-mp2.augccpvtz
|377> ! MP2 aug-cc-pVTZ EnGrad TightSCF FrozenCore
|378> 
|379> %pal
|380>     nprocs 12
|381> end
|382> 
|383> %maxcore 8000
|384> 
|385> %scf
|386>     ConvForced true
|387> end
|388> 
|389> *xyz 0 1
|390> O  -0.892653356  -0.535634563   0.856320762
|391> H  -0.593553356  -0.513234563   1.774820762
|392> H  -0.539953356  -1.381234563   0.504120762
|393> O   0.904446644   0.540065437  -0.903779238
|394> H   0.162846644   0.393365437  -0.272679238
|395> H   0.783446644   1.430765437  -1.252879238
|396> *
|397> 
|398> 
|399> $new_job
|400> 
|401> # 4h2o.temelso.etal.dset.2h2o-orca.engrad-mp2.augccpvtz
|402> ! MP2 aug-cc-pVTZ EnGrad TightSCF FrozenCore
|403> 
|404> %pal
|405>     nprocs 12
|406> end
|407> 
|408> %maxcore 8000
|409> 
|410> %scf
|411>     ConvForced true
|412> end
|413> 
|414> *xyz 0 1
|415> O  -0.737133546   0.967835672   0.765777051
|416> H  -0.438033546   0.990235672   1.684277051
|417> H  -0.384433546   0.122235672   0.413577051
|418> O   0.650966454  -0.967164328  -0.784322949
|419> H   0.685466454  -0.284564328  -1.472022949
|420> H   1.504866454  -0.838564328  -0.331422949
|421> *
|422> 
|423> 
|424> $new_job
|425> 
|426> # 4h2o.temelso.etal.dset.2h2o-orca.engrad-mp2.augccpvtz
|427> ! MP2 aug-cc-pVTZ EnGrad TightSCF FrozenCore
|428> 
|429> %pal
|430>     nprocs 12
|431> end
|432> 
|433> %maxcore 8000
|434> 
|435> %scf
|436>     ConvForced true
|437> end
|438> 
|439> *xyz 0 1
|440> O   0.203778304   1.461846864  -0.106320311
|441> H  -0.537821696   1.315146864   0.524779689
|442> H   0.082778304   2.352546864  -0.455420311
|443> O  -0.205221696  -1.548853136   0.103679689
|444> H  -0.170721696  -0.866253136  -0.584020311
|445> H   0.648678304  -1.420253136   0.556579689
|446> *
|447> 
|448>                          ****END OF INPUT****
================================================================================


                 $$$$$$$$$$$$$$$$$$$$$$$$$$$$$$$$$$$$$$$$$$$$$$ 
                 $ THERE ARE 18 JOBS TO BE PROCESSED THIS RUN $
                 $$$$$$$$$$$$$$$$$$$$$$$$$$$$$$$$$$$$$$$$$$$$$$ 




                 $$$$$$$$$$$$$$$$  JOB NUMBER  1 $$$$$$$$$$$$$$


                     *******************************
                     * Energy+Gradient Calculation *
                     *******************************

---------------------------------
CARTESIAN COORDINATES (ANGSTROEM)
---------------------------------
  O     -1.325577   -0.018445   -0.171803
  H     -1.743777   -0.233045   -1.014603
  H     -1.488777    0.945055   -0.048303
  O      1.399823    0.019955    0.183597
  H      0.442223   -0.118845   -0.001103
  H      1.611723   -0.617145    0.876797

----------------------------
CARTESIAN COORDINATES (A.U.)
----------------------------
  NO LB      ZA    FRAG     MASS         X           Y           Z
   0 O     8.0000    0    15.999   -2.504978   -0.034856   -0.324661
   1 H     1.0000    0     1.008   -3.295262   -0.440391   -1.917322
   2 H     1.0000    0     1.008   -2.813382    1.785896   -0.091280
   3 O     8.0000    0    15.999    2.645281    0.037710    0.346947
   4 H     1.0000    0     1.008    0.835680   -0.224584   -0.002085
   5 H     1.0000    0     1.008    3.045714   -1.166235    1.656906

--------------------------------
INTERNAL COORDINATES (ANGSTROEM)
--------------------------------
 O      0   0   0     0.000000000000     0.00000000     0.00000000
 H      1   0   0     0.965016186393     0.00000000     0.00000000
 H      1   2   0     0.984996822330   104.78701950     0.00000000
 O      1   2   3     2.748743145512   123.07303403   250.25798596
 H      4   1   2     0.985077301535     8.08435971   310.20628916
 H      4   1   2     0.965051428681   107.53929957   239.02515673

---------------------------
INTERNAL COORDINATES (A.U.)
---------------------------
 O      0   0   0     0.000000000000     0.00000000     0.00000000
 H      1   0   0     1.823616307083     0.00000000     0.00000000
 H      1   2   0     1.861374236986   104.78701950     0.00000000
 O      1   2   3     5.194371757511   123.07303403   250.25798596
 H      4   1   2     1.861526320644     8.08435971   310.20628916
 H      4   1   2     1.823682905357   107.53929957   239.02515673

---------------------
BASIS SET INFORMATION
---------------------
There are 2 groups of distinct atoms

 Group   1 Type O   : 19s6p3d2f contracted to 5s4p3d2f pattern {88111/3111/111/11}
 Group   2 Type H   : 6s3p2d contracted to 4s3p2d pattern {3111/111/11}

Atom   0O    basis set group =>   1
Atom   1H    basis set group =>   2
Atom   2H    basis set group =>   2
Atom   3O    basis set group =>   1
Atom   4H    basis set group =>   2
Atom   5H    basis set group =>   2


           ************************************************************
           *        Program running with 12 parallel MPI-processes    *
           *              working on a common directory               *
           ************************************************************
------------------------------------------------------------------------------
                           ORCA GTO INTEGRAL CALCULATION
------------------------------------------------------------------------------

                         BASIS SET STATISTICS AND STARTUP INFO

 # of primitive gaussian shells          ...  104
 # of primitive gaussian functions       ...  232
 # of contracted shells                  ...   64
 # of contracted basis functions         ...  184
 Highest angular momentum                ...    3
 Maximum contraction depth               ...    8
 Integral package used                   ... LIBINT
 Integral threshhold            Thresh   ...  2.500e-11
 Primitive cut-off              TCut     ...  2.500e-12


------------------------------ INTEGRAL EVALUATION ----------------------------


 * One electron integrals 
 Pre-screening matrix                    ... done
 Shell pair data                         ... done (   0.000 sec)



           ************************************************************
           *        Program running with 12 parallel MPI-processes    *
           *              working on a common directory               *
           ************************************************************
-------------------------------------------------------------------------------
                                 ORCA SCF
-------------------------------------------------------------------------------

------------
SCF SETTINGS
------------
Hamiltonian:
 Ab initio Hamiltonian  Method          .... Hartree-Fock(GTOs)


General Settings:
 Integral files         IntName         .... 4h2o.temelso.etal.dset.2h2o-orca.engrad-mp2.augccpvtz
 Hartree-Fock type      HFTyp           .... RHF
 Total Charge           Charge          ....    0
 Multiplicity           Mult            ....    1
 Number of Electrons    NEL             ....   20
 Basis Dimension        Dim             ....  184
 Nuclear Repulsion      ENuc            ....     37.4778520452 Eh

Convergence Acceleration:
 DIIS                   CNVDIIS         .... on
   Start iteration      DIISMaxIt       ....    12
   Startup error        DIISStart       ....  0.200000
   # of expansion vecs  DIISMaxEq       ....     5
   Bias factor          DIISBfac        ....   1.050
   Max. coefficient     DIISMaxC        ....  10.000
 Newton-Raphson         CNVNR           .... off
 SOSCF                  CNVSOSCF        .... on
   Start iteration      SOSCFMaxIt      ....   150
   Startup grad/error   SOSCFStart      ....  0.003300
 Level Shifting         CNVShift        .... on
   Level shift para.    LevelShift      ....    0.2500
   Turn off err/grad.   ShiftErr        ....    0.0010
 Zerner damping         CNVZerner       .... off
 Static damping         CNVDamp         .... on
   Fraction old density DampFac         ....    0.7000
   Max. Damping (<1)    DampMax         ....    0.9800
   Min. Damping (>=0)   DampMin         ....    0.0000
   Turn off err/grad.   DampErr         ....    0.1000
 Fernandez-Rico         CNVRico         .... off

SCF Procedure:
 Maximum # iterations   MaxIter         ....   125
 SCF integral mode      SCFMode         .... Direct
   Integral package                     .... LIBINT
 Reset frequency        DirectResetFreq ....    20
 Integral Threshold     Thresh          ....  2.500e-11 Eh
 Primitive CutOff       TCut            ....  2.500e-12 Eh

Convergence Tolerance:
 Convergence Check Mode ConvCheckMode   .... Total+1el-Energy
 Convergence forced     ConvForced      .... 1
 Energy Change          TolE            ....  1.000e-08 Eh
 1-El. energy change                    ....  1.000e-05 Eh
 Orbital Gradient       TolG            ....  1.000e-05
 Orbital Rotation angle TolX            ....  1.000e-05
 DIIS Error             TolErr          ....  5.000e-07


Diagonalization of the overlap matrix:
Smallest eigenvalue                        ... 2.412e-04
Time for diagonalization                   ...    0.004 sec
Threshold for overlap eigenvalues          ... 1.000e-08
Number of eigenvalues below threshold      ... 0
Time for construction of square roots      ...    0.002 sec
Total time needed                          ...    0.006 sec

-------------------
DFT GRID GENERATION
-------------------

General Integration Accuracy     IntAcc      ...  4.340
Radial Grid Type                 RadialGrid  ... Gauss-Chebyshev
Angular Grid (max. acc.)         AngularGrid ... Lebedev-110
Angular grid pruning method      GridPruning ... 3 (G Style)
Weight generation scheme         WeightScheme... Becke
Basis function cutoff            BFCut       ...    1.0000e-11
Integration weight cutoff        WCut        ...    1.0000e-14
Grids for H and He will be reduced by one unit

# of grid points (after initial pruning)     ...   6608 (   0.0 sec)
# of grid points (after weights+screening)   ...   6475 (   0.0 sec)
nearest neighbour list constructed           ...    0.0 sec
Grid point re-assignment to atoms done       ...    0.0 sec
Grid point division into batches done        ...    0.0 sec
Reduced shell lists constructed in    0.0 sec

Total number of grid points                  ...     6475
Total number of batches                      ...      104
Average number of points per batch           ...       62
Average number of grid points per atom       ...     1079
Average number of shells per batch           ...    52.90 (82.66%)
Average number of basis functions per batch  ...   151.50 (82.34%)
Average number of large shells per batch     ...    47.10 (89.04%)
Average number of large basis fcns per batch ...   132.70 (87.59%)
Maximum spatial batch extension              ...  10.47, 10.28, 14.92 au
Average spatial batch extension              ...   0.28,  0.31,  0.33 au

Time for grid setup =    0.012 sec

------------------------------
INITIAL GUESS: MODEL POTENTIAL
------------------------------
Loading Hartree-Fock densities                     ... done
Calculating cut-offs                               ... done
Setting up the integral package                    ... done
Initializing the effective Hamiltonian             ... done
Starting the Coulomb interaction                   ... done (   0.0 sec)
Reading the grid                                   ... done
Mapping shells                                     ... done
Starting the XC term evaluation                    ... done (   0.0 sec)
Transforming the Hamiltonian                       ... done (   0.0 sec)
Diagonalizing the Hamiltonian                      ... done (   0.0 sec)
Back transforming the eigenvectors                 ... done (   0.0 sec)
Now organizing SCF variables                       ... done
                      ------------------
                      INITIAL GUESS DONE (   0.1 sec)
                      ------------------
--------------
SCF ITERATIONS
--------------
ITER       Energy         Delta-E        Max-DP      RMS-DP      [F,P]     Damp
               ***  Starting incremental Fock matrix formation  ***
  0   -151.9350050061   0.000000000000 0.02750312  0.00071888  0.3824806 0.7000
  1   -152.0086595698  -0.073654563626 0.01834030  0.00049341  0.2220112 0.7000
                               ***Turning on DIIS***
  2   -152.0473568843  -0.038697314496 0.01180316  0.00027984  0.1155115 0.7000
  3   -152.3503214593  -0.302964574992 0.03043614  0.00053166  0.0848793 0.0000
  4   -152.0742299818   0.276091477484 0.00461053  0.00009416  0.0135288 0.0000
  5   -152.1200163181  -0.045786336321 0.00256700  0.00004586  0.0034088 0.0000
                      *** Initiating the SOSCF procedure ***
                           *** Shutting down DIIS ***
                      *** Re-Reading the Fockian *** 
                      *** Removing any level shift *** 
ITER      Energy       Delta-E        Grad      Rot      Max-DP    RMS-DP
  6   -152.11936032   0.0006559933  0.000564  0.000564  0.001543  0.000025
               *** Restarting incremental Fock matrix formation ***
  7   -152.12185373  -0.0024934070  0.000181  0.000280  0.000257  0.000007
  8   -152.12185528  -0.0000015485  0.000067  0.000180  0.000285  0.000006
  9   -152.12185565  -0.0000003672  0.000023  0.000016  0.000044  0.000001
 10   -152.12185566  -0.0000000095  0.000012  0.000010  0.000010  0.000000
                  ***Gradient check signals convergence***
              ***Rediagonalizing the Fockian in SOSCF/NRSCF***

               *****************************************************
               *                     SUCCESS                       *
               *           SCF CONVERGED AFTER  11 CYCLES          *
               *****************************************************


----------------
TOTAL SCF ENERGY
----------------

Total Energy       :         -152.12185566 Eh           -4139.44614 eV

Components:
Nuclear Repulsion  :           37.47785205 Eh            1019.82420 eV
Electronic Energy  :         -189.59970770 Eh           -5159.27034 eV
One Electron Energy:         -284.36015175 Eh           -7737.83311 eV
Two Electron Energy:           94.76044404 Eh            2578.56277 eV

Virial components:
Potential Energy   :         -303.95793995 Eh           -8271.11604 eV
Kinetic Energy     :          151.83608429 Eh            4131.66990 eV
Virial Ratio       :            2.00188210


---------------
SCF CONVERGENCE
---------------

  Last Energy change         ...   -2.7327e-09  Tolerance :   1.0000e-08
  Last MAX-Density change    ...    4.6771e-06  Tolerance :   1.0000e-07
  Last RMS-Density change    ...    8.2083e-08  Tolerance :   5.0000e-09
  Last Orbital Gradient      ...    1.1975e-06  Tolerance :   1.0000e-05
  Last Orbital Rotation      ...    1.7878e-06  Tolerance :   1.0000e-05

             **** THE GBW FILE WAS UPDATED (4h2o.temelso.etal.dset.2h2o-orca.engrad-mp2.augccpvtz.gbw) ****
             **** DENSITY FILE WAS UPDATED (4h2o.temelso.etal.dset.2h2o-orca.engrad-mp2.augccpvtz.scfp) ****
             **** ENERGY FILE WAS UPDATED (4h2o.temelso.etal.dset.2h2o-orca.engrad-mp2.augccpvtz.en.tmp) ****
             **** THE GBW FILE WAS UPDATED (4h2o.temelso.etal.dset.2h2o-orca.engrad-mp2.augccpvtz.gbw) ****
             **** DENSITY FILE WAS UPDATED (4h2o.temelso.etal.dset.2h2o-orca.engrad-mp2.augccpvtz.scfp) ****
----------------
ORBITAL ENERGIES
----------------

  NO   OCC          E(Eh)            E(eV) 
   0   2.0000     -20.599312      -560.5358 
   1   2.0000     -20.530049      -558.6510 
   2   2.0000      -1.379153       -37.5287 
   3   2.0000      -1.309480       -35.6328 
   4   2.0000      -0.740804       -20.1583 
   5   2.0000      -0.689048       -18.7499 
   6   2.0000      -0.615623       -16.7519 
   7   2.0000      -0.556621       -15.1464 
   8   2.0000      -0.525587       -14.3019 
   9   2.0000      -0.473935       -12.8964 
  10   0.0000       0.021867         0.5950 
  11   0.0000       0.045211         1.2303 
  12   0.0000       0.048042         1.3073 
  13   0.0000       0.074857         2.0370 
  14   0.0000       0.122677         3.3382 
  15   0.0000       0.140492         3.8230 
  16   0.0000       0.163802         4.4573 
  17   0.0000       0.171941         4.6788 
  18   0.0000       0.175703         4.7811 
  19   0.0000       0.187486         5.1017 
  20   0.0000       0.213586         5.8120 
  21   0.0000       0.220697         6.0055 
  22   0.0000       0.235602         6.4111 
  23   0.0000       0.245706         6.6860 
  24   0.0000       0.267858         7.2888 
  25   0.0000       0.280531         7.6336 
  26   0.0000       0.300776         8.1845 
  27   0.0000       0.314087         8.5467 
  28   0.0000       0.366199         9.9648 
  29   0.0000       0.374529        10.1914 
  30   0.0000       0.380262        10.3475 
  31   0.0000       0.411887        11.2080 
  32   0.0000       0.421103        11.4588 
  33   0.0000       0.438277        11.9261 
  34   0.0000       0.448633        12.2079 
  35   0.0000       0.449296        12.2260 
  36   0.0000       0.497512        13.5380 
  37   0.0000       0.569230        15.4895 
  38   0.0000       0.592478        16.1221 
  39   0.0000       0.614581        16.7236 
  40   0.0000       0.661781        18.0080 
  41   0.0000       0.705585        19.2000 
  42   0.0000       0.707496        19.2519 
  43   0.0000       0.725551        19.7432 
  44   0.0000       0.755801        20.5664 
  45   0.0000       0.761652        20.7256 
  46   0.0000       0.794748        21.6262 
  47   0.0000       0.809485        22.0272 
  48   0.0000       0.826322        22.4854 
  49   0.0000       0.847474        23.0609 
  50   0.0000       0.873180        23.7604 
  51   0.0000       0.899230        24.4693 
  52   0.0000       0.915662        24.9164 
  53   0.0000       0.936579        25.4856 
  54   0.0000       0.950069        25.8527 
  55   0.0000       0.961324        26.1590 
  56   0.0000       0.966457        26.2986 
  57   0.0000       0.975685        26.5497 
  58   0.0000       0.991556        26.9816 
  59   0.0000       1.009038        27.4573 
  60   0.0000       1.020772        27.7766 
  61   0.0000       1.036843        28.2139 
  62   0.0000       1.046617        28.4799 
  63   0.0000       1.059425        28.8284 
  64   0.0000       1.077435        29.3185 
  65   0.0000       1.127105        30.6701 
  66   0.0000       1.170539        31.8520 
  67   0.0000       1.180516        32.1235 
  68   0.0000       1.198726        32.6190 
  69   0.0000       1.243062        33.8254 
  70   0.0000       1.253497        34.1094 
  71   0.0000       1.277825        34.7714 
  72   0.0000       1.288038        35.0493 
  73   0.0000       1.337612        36.3983 
  74   0.0000       1.410990        38.3950 
  75   0.0000       1.452038        39.5120 
  76   0.0000       1.499115        40.7930 
  77   0.0000       1.534895        41.7666 
  78   0.0000       1.559235        42.4289 
  79   0.0000       1.596384        43.4398 
  80   0.0000       1.616649        43.9913 
  81   0.0000       1.662934        45.2507 
  82   0.0000       1.700334        46.2684 
  83   0.0000       1.747993        47.5653 
  84   0.0000       1.808215        49.2040 
  85   0.0000       1.855979        50.5038 
  86   0.0000       1.947944        53.0062 
  87   0.0000       1.989565        54.1388 
  88   0.0000       2.040390        55.5218 
  89   0.0000       2.112865        57.4940 
  90   0.0000       2.124595        57.8132 
  91   0.0000       2.275429        61.9176 
  92   0.0000       2.304068        62.6969 
  93   0.0000       2.326465        63.3063 
  94   0.0000       2.375116        64.6302 
  95   0.0000       2.406322        65.4794 
  96   0.0000       2.464664        67.0669 
  97   0.0000       2.474951        67.3468 
  98   0.0000       2.489064        67.7309 
  99   0.0000       2.502479        68.0959 
 100   0.0000       2.529264        68.8248 
 101   0.0000       2.543685        69.2172 
 102   0.0000       2.577152        70.1279 
 103   0.0000       2.620683        71.3124 
 104   0.0000       2.656268        72.2807 
 105   0.0000       2.683926        73.0334 
 106   0.0000       2.739906        74.5566 
 107   0.0000       2.770213        75.3813 
 108   0.0000       2.801867        76.2427 
 109   0.0000       2.806261        76.3622 
 110   0.0000       2.854298        77.6694 
 111   0.0000       2.924748        79.5864 
 112   0.0000       2.944563        80.1256 
 113   0.0000       3.008706        81.8711 
 114   0.0000       3.049541        82.9822 
 115   0.0000       3.190531        86.8188 
 116   0.0000       3.756498       102.2195 
 117   0.0000       3.763201       102.4019 
 118   0.0000       3.822282       104.0096 
 119   0.0000       4.021374       109.4271 
 120   0.0000       4.083163       111.1085 
 121   0.0000       4.106401       111.7409 
 122   0.0000       4.170295       113.4795 
 123   0.0000       4.215814       114.7181 
 124   0.0000       4.231747       115.1517 
 125   0.0000       4.260251       115.9273 
 126   0.0000       4.267180       116.1159 
 127   0.0000       4.313967       117.3890 
 128   0.0000       4.372119       118.9714 
 129   0.0000       4.389384       119.4412 
 130   0.0000       4.413972       120.1103 
 131   0.0000       4.456764       121.2747 
 132   0.0000       4.469968       121.6340 
 133   0.0000       4.516340       122.8959 
 134   0.0000       4.529489       123.2537 
 135   0.0000       4.598892       125.1422 
 136   0.0000       4.632348       126.0526 
 137   0.0000       4.722228       128.4984 
 138   0.0000       4.730103       128.7126 
 139   0.0000       4.846915       131.8912 
 140   0.0000       4.870490       132.5328 
 141   0.0000       5.010830       136.3516 
 142   0.0000       5.111457       139.0898 
 143   0.0000       5.133015       139.6764 
 144   0.0000       5.195665       141.3812 
 145   0.0000       5.227615       142.2506 
 146   0.0000       5.262951       143.2122 
 147   0.0000       5.274783       143.5341 
 148   0.0000       5.355974       145.7435 
 149   0.0000       5.430301       147.7660 
 150   0.0000       5.563980       151.4036 
 151   0.0000       5.613593       152.7536 
 152   0.0000       5.744614       156.3189 
 153   0.0000       5.776534       157.1875 
 154   0.0000       6.251283       170.1060 
 155   0.0000       6.292313       171.2225 
 156   0.0000       6.527651       177.6264 
 157   0.0000       6.575869       178.9385 
 158   0.0000       6.786555       184.6715 
 159   0.0000       6.809262       185.2894 
 160   0.0000       6.899042       187.7325 
 161   0.0000       6.977757       189.8744 
 162   0.0000       7.146680       194.4710 
 163   0.0000       7.168819       195.0735 
 164   0.0000       7.257017       197.4735 
 165   0.0000       7.289882       198.3678 
 166   0.0000       7.301586       198.6863 
 167   0.0000       7.309025       198.8887 
 168   0.0000       7.338884       199.7012 
 169   0.0000       7.358224       200.2275 
 170   0.0000       7.404562       201.4884 
 171   0.0000       7.427777       202.1201 
 172   0.0000       7.472185       203.3285 
 173   0.0000       7.550260       205.4530 
 174   0.0000       7.661143       208.4703 
 175   0.0000       7.755923       211.0494 
 176   0.0000       7.904058       215.0803 
 177   0.0000       7.958146       216.5522 
 178   0.0000       8.029040       218.4813 
 179   0.0000       8.121395       220.9944 
 180   0.0000       8.809706       239.7243 
 181   0.0000       8.909595       242.4424 
 182   0.0000      15.695588       427.0987 
 183   0.0000      16.600737       451.7290 

                    ********************************
                    * MULLIKEN POPULATION ANALYSIS *
                    ********************************

-----------------------
MULLIKEN ATOMIC CHARGES
-----------------------
   0 O :   -0.428867
   1 H :    0.212776
   2 H :    0.242574
   3 O :   -0.527125
   4 H :    0.303663
   5 H :    0.196979
Sum of atomic charges:    0.0000000

--------------------------------
MULLIKEN REDUCED ORBITAL CHARGES
--------------------------------
  0 O s       :     3.862383  s :     3.862383
      pz      :     1.446313  p :     4.553073
      px      :     1.760489
      py      :     1.346271
      dz2     :     0.003365  d :     0.012598
      dxz     :     0.004085
      dyz     :     0.000294
      dx2y2   :     0.002363
      dxy     :     0.002490
      f0      :    -0.000045  f :     0.000813
      f+1     :     0.000429
      f-1     :     0.000120
      f+2     :     0.000087
      f-2     :     0.000047
      f+3     :    -0.000003
      f-3     :     0.000178
  1 H s       :     0.666123  s :     0.666123
      pz      :     0.020487  p :     0.100751
      px      :     0.048459
      py      :     0.031805
      dz2     :     0.006270  d :     0.020350
      dxz     :     0.005632
      dyz     :     0.003892
      dx2y2   :     0.003061
      dxy     :     0.001495
  2 H s       :     0.642331  s :     0.642331
      pz      :     0.033506  p :     0.096690
      px      :     0.045361
      py      :     0.017823
      dz2     :     0.001559  d :     0.018405
      dxz     :     0.000362
      dyz     :     0.006480
      dx2y2   :     0.001196
      dxy     :     0.008807
  3 O s       :     3.886606  s :     3.886606
      pz      :     1.575560  p :     4.616210
      px      :     1.422324
      py      :     1.618326
      dz2     :     0.004255  d :     0.023093
      dxz     :     0.000443
      dyz     :     0.005646
      dx2y2   :     0.010288
      dxy     :     0.002462
      f0      :     0.000133  f :     0.001216
      f+1     :     0.000101
      f-1     :     0.000415
      f+2     :     0.000250
      f-2     :     0.000060
      f+3     :     0.000141
      f-3     :     0.000118
  4 H s       :     0.581626  s :     0.581626
      pz      :     0.040010  p :     0.067081
      px      :    -0.008343
      py      :     0.035414
      dz2     :     0.004176  d :     0.047630
      dxz     :     0.015225
      dyz     :     0.001083
      dx2y2   :     0.008201
      dxy     :     0.018945
  5 H s       :     0.679372  s :     0.679372
      pz      :     0.036861  p :     0.106169
      px      :     0.035691
      py      :     0.033617
      dz2     :     0.007171  d :     0.017480
      dxz     :     0.002964
      dyz     :     0.001006
      dx2y2   :     0.003845
      dxy     :     0.002494


                     *******************************
                     * LOEWDIN POPULATION ANALYSIS *
                     *******************************

----------------------
LOEWDIN ATOMIC CHARGES
----------------------
   0 O :    1.076372
   1 H :   -0.456522
   2 H :   -0.410829
   3 O :    1.013928
   4 H :   -0.712862
   5 H :   -0.510088

-------------------------------
LOEWDIN REDUCED ORBITAL CHARGES
-------------------------------
  0 O s       :     2.968050  s :     2.968050
      pz      :     1.270214  p :     3.836558
      px      :     1.357081
      py      :     1.209263
      dz2     :     0.027919  d :     0.100059
      dxz     :     0.018117
      dyz     :     0.007919
      dx2y2   :     0.038403
      dxy     :     0.007700
      f0      :     0.001669  f :     0.018961
      f+1     :     0.005449
      f-1     :     0.002913
      f+2     :     0.001020
      f-2     :     0.000871
      f+3     :     0.002872
[...]
      px      :     0.037525
      py      :     0.025672
      dz2     :     0.003764  d :     0.018797
      dxz     :     0.002306
      dyz     :     0.004354
      dx2y2   :     0.002404
      dxy     :     0.005968
  3 O s       :     3.877831  s :     3.877831
      pz      :     1.479772  p :     4.559886
      px      :     1.462330
      py      :     1.617784
      dz2     :     0.007066  d :     0.048111
      dxz     :     0.008923
      dyz     :     0.010957
      dx2y2   :     0.012790
      dxy     :     0.008374
      f0      :     0.000781  f :     0.005144
      f+1     :     0.000562
      f-1     :     0.000845
      f+2     :     0.000910
      f-2     :     0.000633
      f+3     :     0.000705
      f-3     :     0.000707
  4 H s       :     0.632319  s :     0.632319
      pz      :     0.027505  p :     0.086776
      px      :     0.034342
      py      :     0.024929
      dz2     :     0.007455  d :     0.018049
      dxz     :     0.004171
      dyz     :     0.000472
      dx2y2   :     0.002634
      dxy     :     0.003318
  5 H s       :     0.658411  s :     0.658411
      pz      :     0.034496  p :     0.091872
      px      :     0.022760
      py      :     0.034616
      dz2     :     0.004611  d :     0.015698
      dxz     :     0.001800
      dyz     :     0.002566
      dx2y2   :     0.001984
      dxy     :     0.004738


                     *******************************
                     * LOEWDIN POPULATION ANALYSIS *
                     *******************************

----------------------
LOEWDIN ATOMIC CHARGES
----------------------
   0 O :    1.006921
   1 H :   -0.463081
   2 H :   -0.501475
   3 O :    1.001449
   4 H :   -0.552269
   5 H :   -0.491544

-------------------------------
LOEWDIN REDUCED ORBITAL CHARGES
-------------------------------
  0 O s       :     3.004153  s :     3.004153
      pz      :     1.302108  p :     3.863811
      px      :     1.317725
      py      :     1.243978
      dz2     :     0.010383  d :     0.106249
      dxz     :     0.028332
      dyz     :     0.019246
      dx2y2   :     0.038675
      dxy     :     0.009613
      f0      :     0.002838  f :     0.018866
      f+1     :     0.002360
      f-1     :     0.001062
      f+2     :     0.005509
      f-2     :     0.001251
      f+3     :     0.002637
      f-3     :     0.003209
  1 H s       :     0.570823  s :     0.570823
      pz      :     0.185682  p :     0.531185
      px      :     0.212051
      py      :     0.133452
      dz2     :     0.085016  d :     0.361073
      dxz     :     0.090448
      dyz     :     0.055231
      dx2y2   :     0.070970
      dxy     :     0.059408
  2 H s       :     0.587482  s :     0.587482
      pz      :     0.161770  p :     0.550909
      px      :     0.153918
      py      :     0.235221
      dz2     :     0.052146  d :     0.363084
      dxz     :     0.022449
      dyz     :     0.104023
      dx2y2   :     0.080167
      dxy     :     0.104299
  3 O s       :     3.013678  s :     3.013678
      pz      :     1.254569  p :     3.866271
      px      :     1.274227
      py      :     1.337475
      dz2     :     0.010152  d :     0.099177
      dxz     :     0.024514
      dyz     :     0.030032
      dx2y2   :     0.028142
      dxy     :     0.006337
      f0      :     0.002657  f :     0.019425
      f+1     :     0.000675
      f-1     :     0.003637
      f+2     :     0.006288
      f-2     :     0.001437
      f+3     :     0.002748
      f-3     :     0.001983
  4 H s       :     0.574024  s :     0.574024
      pz      :     0.199814  p :     0.576361
      px      :     0.147330
      py      :     0.229217
      dz2     :     0.102059  d :     0.401883
      dxz     :     0.072429
      dyz     :     0.095376
      dx2y2   :     0.071850
      dxy     :     0.060169
  5 H s       :     0.578752  s :     0.578752
      pz      :     0.162365  p :     0.547898
      px      :     0.233173
      py      :     0.152361
      dz2     :     0.066854  d :     0.364893
      dxz     :     0.094615
      dyz     :     0.033053
      dx2y2   :     0.079407
      dxy     :     0.090964


                      *****************************
                      * MAYER POPULATION ANALYSIS *
                      *****************************

  NA   - Mulliken gross atomic population
  ZA   - Total nuclear charge
  QA   - Mulliken gross atomic charge
  VA   - Mayer's total valence
  BVA  - Mayer's bonded valence
  FA   - Mayer's free valence

  ATOM       NA         ZA         QA         VA         BVA        FA
  0 O      8.4435     8.0000    -0.4435     2.2343     1.8579     0.3765
  1 H      0.7509     1.0000     0.2491     1.0129     0.9462     0.0667
  2 H      0.8115     1.0000     0.1885     1.0655     0.9976     0.0679
  3 O      8.4910     8.0000    -0.4910     2.1889     1.8111     0.3778
  4 H      0.7371     1.0000     0.2629     0.9860     0.9216     0.0644
  5 H      0.7660     1.0000     0.2340     1.0251     0.9582     0.0668

  Mayer bond orders larger than 0.100000
B(  0-O ,  1-H ) :   0.9096 B(  0-O ,  2-H ) :   0.9659 B(  3-O ,  4-H ) :   0.8947 
B(  3-O ,  5-H ) :   0.9242 


                *******************************************
                * RELAXED MP2 DENSITY POPULATION ANALYSIS *
                *******************************************

------------------------------------------------------------------------------
                           ORCA POPULATION ANALYSIS
------------------------------------------------------------------------------
Input electron density              ... 4h2o.temelso.etal.dset.2h2o-orca.engrad-mp2.augccpvtz_job18.pmp2re
BaseName (.gbw .S,...)              ... 4h2o.temelso.etal.dset.2h2o-orca.engrad-mp2.augccpvtz_job18

                    ********************************
                    * MULLIKEN POPULATION ANALYSIS *
                    ********************************

-----------------------
MULLIKEN ATOMIC CHARGES
-----------------------
   0 O :   -0.431644
   1 H :    0.246358
   2 H :    0.185621
   3 O :   -0.479591
   4 H :    0.247611
   5 H :    0.231645
Sum of atomic charges:    0.0000000

--------------------------------
MULLIKEN REDUCED ORBITAL CHARGES
--------------------------------
  0 O s       :     3.848905  s :     3.848905
      pz      :     1.578825  p :     4.535389
      px      :     1.551191
      py      :     1.405373
      dz2     :     0.007328  d :     0.042303
      dxz     :     0.010484
      dyz     :     0.005630
      dx2y2   :     0.010711
      dxy     :     0.008150
      f0      :     0.000846  f :     0.005047
      f+1     :     0.000791
      f-1     :     0.000632
      f+2     :     0.000914
      f-2     :     0.000621
      f+3     :     0.000650
      f-3     :     0.000592
  1 H s       :     0.638080  s :     0.638080
      pz      :     0.036789  p :     0.100305
      px      :     0.028609
      py      :     0.034907
      dz2     :     0.006072  d :     0.015258
      dxz     :    -0.000367
      dyz     :     0.003332
      dx2y2   :     0.003217
      dxy     :     0.003004
  2 H s       :     0.683432  s :     0.683432
      pz      :     0.044133  p :     0.114786
      px      :     0.043882
      py      :     0.026771
      dz2     :     0.003294  d :     0.016161
      dxz     :     0.002104
      dyz     :     0.003775
      dx2y2   :     0.001594
      dxy     :     0.005393
  3 O s       :     3.877441  s :     3.877441
      pz      :     1.478448  p :     4.549629
      px      :     1.461291
      py      :     1.609890
      dz2     :     0.007135  d :     0.047338
      dxz     :     0.008640
      dyz     :     0.010417
      dx2y2   :     0.012315
      dxy     :     0.008831
      f0      :     0.000780  f :     0.005184
      f+1     :     0.000571
      f-1     :     0.000860
      f+2     :     0.000941
      f-2     :     0.000642
      f+3     :     0.000697
      f-3     :     0.000694
  4 H s       :     0.630316  s :     0.630316
      pz      :     0.030826  p :     0.104901
      px      :     0.038925
      py      :     0.035150
      dz2     :     0.007100  d :     0.017172
      dxz     :     0.003933
      dyz     :     0.000064
      dx2y2   :     0.002896
      dxy     :     0.003179
  5 H s       :     0.650548  s :     0.650548
      pz      :     0.037709  p :     0.104069
      px      :     0.024984
      py      :     0.041376
      dz2     :     0.004230  d :     0.013737
      dxz     :     0.001346
      dyz     :     0.002362
      dx2y2   :     0.001541
      dxy     :     0.004258


                     *******************************
                     * LOEWDIN POPULATION ANALYSIS *
                     *******************************

----------------------
LOEWDIN ATOMIC CHARGES
----------------------
   0 O :    1.015760
   1 H :   -0.467852
   2 H :   -0.504612
   3 O :    1.009926
   4 H :   -0.557727
   5 H :   -0.495495

-------------------------------
LOEWDIN REDUCED ORBITAL CHARGES
-------------------------------
  0 O s       :     3.005406  s :     3.005406
      pz      :     1.298439  p :     3.855772
      px      :     1.313394
      py      :     1.243939
      dz2     :     0.010371  d :     0.104044
      dxz     :     0.027703
      dyz     :     0.018530
      dx2y2   :     0.038066
      dxy     :     0.009374
      f0      :     0.002883  f :     0.019018
      f+1     :     0.002379
      f-1     :     0.001043
      f+2     :     0.005595
      f-2     :     0.001246
      f+3     :     0.002625
      f-3     :     0.003247
  1 H s       :     0.566354  s :     0.566354
      pz      :     0.190972  p :     0.546724
      px      :     0.218154
      py      :     0.137598
      dz2     :     0.082761  d :     0.354774
      dxz     :     0.089601
      dyz     :     0.054234
      dx2y2   :     0.069995
      dxy     :     0.058184
  2 H s       :     0.582940  s :     0.582940
      pz      :     0.167438  p :     0.565996
      px      :     0.160366
      py      :     0.238192
      dz2     :     0.051266  d :     0.355676
      dxz     :     0.021851
      dyz     :     0.101847
      dx2y2   :     0.078891
      dxy     :     0.101821
  3 O s       :     3.015221  s :     3.015221
      pz      :     1.254990  p :     3.858667
      px      :     1.273363
      py      :     1.330314
      dz2     :     0.009910  d :     0.096622
      dxz     :     0.023523
      dyz     :     0.029453
      dx2y2   :     0.027439
      dxy     :     0.006296
      f0      :     0.002672  f :     0.019564
      f+1     :     0.000660
      f-1     :     0.003687
      f+2     :     0.006397
      f-2     :     0.001400
      f+3     :     0.002758
      f-3     :     0.001990
  4 H s       :     0.570697  s :     0.570697
      pz      :     0.203486  p :     0.591564
      px      :     0.152209
      py      :     0.235869
      dz2     :     0.100012  d :     0.395466
      dxz     :     0.070817
      dyz     :     0.094742
      dx2y2   :     0.070866
      dxy     :     0.059029
  5 H s       :     0.573963  s :     0.573963
      pz      :     0.166586  p :     0.563831
      px      :     0.237791
      py      :     0.159454
      dz2     :     0.065586  d :     0.357701
      dxz     :     0.093193
      dyz     :     0.032306
      dx2y2   :     0.077889
      dxy     :     0.088726


                      *****************************
                      * MAYER POPULATION ANALYSIS *
                      *****************************

  NA   - Mulliken gross atomic population
  ZA   - Total nuclear charge
  QA   - Mulliken gross atomic charge
  VA   - Mayer's total valence
  BVA  - Mayer's bonded valence
  FA   - Mayer's free valence

  ATOM       NA         ZA         QA         VA         BVA        FA
  0 O      8.4316     8.0000    -0.4316     2.2583     1.8889     0.3694
  1 H      0.7536     1.0000     0.2464     1.0274     0.9618     0.0657
  2 H      0.8144     1.0000     0.1856     1.0823     1.0156     0.0668
  3 O      8.4796     8.0000    -0.4796     2.2183     1.8479     0.3703
  4 H      0.7524     1.0000     0.2476     1.0227     0.9596     0.0630
  5 H      0.7684     1.0000     0.2316     1.0398     0.9740     0.0658

  Mayer bond orders larger than 0.100000
B(  0-O ,  1-H ) :   0.9212 B(  0-O ,  2-H ) :   0.9813 B(  3-O ,  4-H ) :   0.9200 
B(  3-O ,  5-H ) :   0.9392 


----------------------------------
MP2 DERIVATIVE INTEGRAL GENERATION
----------------------------------


Input Wavefunction Amplitudes       ... 4h2o.temelso.etal.dset.2h2o-orca.engrad-mp2.augccpvtz_job18.mp2tsaa.tmp
Input Correlated Electron Density   ... 4h2o.temelso.etal.dset.2h2o-orca.engrad-mp2.augccpvtz_job18.pmp2re
Input Energy Weighted Density       ... 4h2o.temelso.etal.dset.2h2o-orca.engrad-mp2.augccpvtz_job18.wmp2.tmp
Input SCF Electron Density          ... 4h2o.temelso.etal.dset.2h2o-orca.engrad-mp2.augccpvtz_job18.scfp

One-Electron Terms    ...
                        ... One-Electron Terms done
Prescreening matrices              ... done

Batch handling in the gradient evaluation:
Memory available                      ... 8000.0 MB
Memory per occupied orbital in Q2     ...    2.1 MB
Memory per occupied orbital in Q3     ...    0.1 MB
Total memory requirement per |i>      ...    2.1 MB
Max. Number of orbitals possible      ...   3746
Number of orbitals treated per batch  ...      8
Number of batches to be done          ...      1
Batch   0: i=    2 ...     9

---------------------------------------
MP2 TOTAL ENERGY:     -152.662711773 Eh
---------------------------------------

The final MP2 gradient
  0:   0.01375644   0.00422830  -0.01081492
  1:  -0.01540321  -0.00551715   0.01414871
  2:   0.00193404   0.00251559  -0.00284602
  3:  -0.01171292  -0.00644772  -0.00142507
  4:   0.00034724   0.00273139  -0.00423615
  5:   0.01107842   0.00248960   0.00517345

-----------------------------------
NORM OF THE MP2 GRADIENT:  0.034237
-----------------------------------

-------------------------   --------------------
FINAL SINGLE POINT ENERGY      -152.662711772955
-------------------------   --------------------


                            ***************************************
                            *     ORCA property calculations      *
                            ***************************************

                                    ---------------------
                                    Active property flags
                                    ---------------------
   (+) Dipole Moment


------------------------------------------------------------------------------
                       ORCA ELECTRIC PROPERTIES CALCULATION
------------------------------------------------------------------------------

Dipole Moment Calculation                       ... on
Quadrupole Moment Calculation                   ... off
Polarizability Calculation                      ... off
GBWName                                         ... 4h2o.temelso.etal.dset.2h2o-orca.engrad-mp2.augccpvtz_job18.gbw
Electron density file                           ... 4h2o.temelso.etal.dset.2h2o-orca.engrad-mp2.augccpvtz_job18.scfp
The origin for moment calculation is the CENTER OF MASS  = ( 0.000000,  0.000012  0.000000)

-------------
DIPOLE MOMENT
-------------
                                X             Y             Z
Electronic contribution:     -0.00071      -0.18462      -0.01596
Nuclear contribution   :      0.02147       1.29449       0.03929
                        -----------------------------------------
Total Dipole Moment    :      0.02076       1.10987       0.02332
                        -----------------------------------------
Magnitude (a.u.)       :      1.11031
Magnitude (Debye)      :      2.82219



--------------------
Rotational spectrum 
--------------------
 
Rotational constants in cm-1:     7.372953     0.198207     0.197862 
Rotational constants in MHz : 221035.577435  5942.084327  5931.754129 

 Dipole components along the rotational axes: 
x,y,z [a.u.] :     1.101676     0.045336     0.130562 
x,y,z [Debye]:     2.800237     0.115235     0.331862 

 

                         *** MP2 UNRELAXED DENSITY ***

------------------------------------------------------------------------------
                       ORCA ELECTRIC PROPERTIES CALCULATION
------------------------------------------------------------------------------

Dipole Moment Calculation                       ... on
Quadrupole Moment Calculation                   ... off
Polarizability Calculation                      ... off
GBWName                                         ... 4h2o.temelso.etal.dset.2h2o-orca.engrad-mp2.augccpvtz_job18.gbw
Electron density file                           ... 4h2o.temelso.etal.dset.2h2o-orca.engrad-mp2.augccpvtz_job18.pmp2ur
The origin for moment calculation is the CENTER OF MASS  = ( 0.000000,  0.000012  0.000000)

-------------
DIPOLE MOMENT
-------------
                                X             Y             Z
Electronic contribution:     -0.00047      -0.20429      -0.01693
Nuclear contribution   :      0.02147       1.29449       0.03929
                        -----------------------------------------
Total Dipole Moment    :      0.02100       1.09019       0.02236
                        -----------------------------------------
Magnitude (a.u.)       :      1.09062
Magnitude (Debye)      :      2.77215



--------------------
Rotational spectrum 
--------------------
 
Rotational constants in cm-1:     7.372953     0.198207     0.197862 
Rotational constants in MHz : 221035.577435  5942.084327  5931.754129 

 Dipole components along the rotational axes: 
x,y,z [a.u.] :     1.082244     0.044208     0.127497 
x,y,z [Debye]:     2.750845     0.112368     0.324072 

 

                           *** MP2 RELAXED DENSITY ***

------------------------------------------------------------------------------
                       ORCA ELECTRIC PROPERTIES CALCULATION
------------------------------------------------------------------------------

Dipole Moment Calculation                       ... on
Quadrupole Moment Calculation                   ... off
Polarizability Calculation                      ... off
GBWName                                         ... 4h2o.temelso.etal.dset.2h2o-orca.engrad-mp2.augccpvtz_job18.gbw
Electron density file                           ... 4h2o.temelso.etal.dset.2h2o-orca.engrad-mp2.augccpvtz_job18.pmp2re
The origin for moment calculation is the CENTER OF MASS  = ( 0.000000,  0.000012  0.000000)

-------------
DIPOLE MOMENT
-------------
                                X             Y             Z
Electronic contribution:      0.00108      -0.24846      -0.01635
Nuclear contribution   :      0.02147       1.29449       0.03929
                        -----------------------------------------
Total Dipole Moment    :      0.02255       1.04602       0.02294
                        -----------------------------------------
Magnitude (a.u.)       :      1.04652
Magnitude (Debye)      :      2.66004



--------------------
Rotational spectrum 
--------------------
 
Rotational constants in cm-1:     7.372953     0.198207     0.197862 
Rotational constants in MHz : 221035.577435  5942.084327  5931.754129 

 Dipole components along the rotational axes: 
x,y,z [a.u.] :     1.038543     0.039623     0.122714 
x,y,z [Debye]:     2.639765     0.100715     0.311914 

 

Timings for individual modules:

Sum of individual times         ...       22.561 sec (=   0.376 min)
GTO integral calculation        ...        0.862 sec (=   0.014 min)   3.8 %
SCF iterations                  ...        7.663 sec (=   0.128 min)  34.0 %
MP2 module                      ...       14.037 sec (=   0.234 min)  62.2 %



                             ****ORCA TERMINATED NORMALLY****
TOTAL RUN TIME: 0 days 0 hours 6 minutes 48 seconds 435 msec
