
                                 *****************
                                 * O   R   C   A *
                                 *****************

           --- An Ab Initio, DFT and Semiempirical electronic structure package ---

                  #######################################################
                  #                        -***-                        #
                  #          Department of theory and spectroscopy      #
                  #               Directorship: Frank Neese             #
                  #        Max Planck Institute fuer Kohlenforschung    #
                  #                Kaiser Wilhelm Platz 1               #
                  #                 D-45470 Muelheim/Ruhr               #
                  #                      Germany                        #
                  #                                                     #
                  #                  All rights reserved                #
                  #                        -***-                        #
                  #######################################################


                         Program Version 4.2.0 -  RELEASE  -


 With contributions from (in alphabetic order):
   Daniel Aravena         : Magnetic Suceptibility
   Michael Atanasov       : Ab Initio Ligand Field Theory (pilot matlab implementation)
   Alexander A. Auer      : GIAO ZORA, VPT2
   Ute Becker             : Parallelization
   Giovanni Bistoni       : ED, misc. LED, open-shell LED, HFLED
   Martin Brehm           : Molecular dynamics
   Dmytro Bykov           : SCF Hessian
   Vijay G. Chilkuri      : MRCI spin determinant printing, contributions to CSF-ICE
   Dipayan Datta          : RHF DLPNO-CCSD density
   Achintya Kumar Dutta   : EOM-CC, STEOM-CC
   Dmitry Ganyushin       : Spin-Orbit,Spin-Spin,Magnetic field MRCI
   Miquel Garcia          : C-PCM Hessian, Gaussian charge scheme
   Yang Guo               : DLPNO-NEVPT2, CIM, IAO-localization
   Andreas Hansen         : Spin unrestricted coupled pair/coupled cluster methods
   Benjamin Helmich-Paris : CASSCF linear response (MC-RPA)
   Lee Huntington         : MR-EOM, pCC
   Robert Izsak           : Overlap fitted RIJCOSX, COSX-SCS-MP3, EOM
   Christian Kollmar      : KDIIS, OOCD, Brueckner-CCSD(T), CCSD density
   Simone Kossmann        : Meta GGA functionals, TD-DFT gradient, OOMP2, MP2 Hessian
   Martin Krupicka        : AUTO-CI
   Lucas Lang             : DCDCAS
   Dagmar Lenk            : GEPOL surface, SMD
   Dimitrios Liakos       : Extrapolation schemes; Compound Job, initial MDCI parallelization
   Dimitrios Manganas     : Further ROCIS development; embedding schemes
   Dimitrios Pantazis     : SARC Basis sets
   Taras Petrenko         : DFT Hessian,TD-DFT gradient, ASA, ECA, R-Raman, ABS, FL, XAS/XES, NRVS
   Peter Pinski           : DLPNO-MP2, DLPNO-MP2 Gradient
   Christoph Reimann      : Effective Core Potentials
   Marius Retegan         : Local ZFS, SOC
   Christoph Riplinger    : Optimizer, TS searches, QM/MM, DLPNO-CCSD(T), (RO)-DLPNO pert. Triples
   Tobias Risthaus        : Range-separated hybrids, TD-DFT gradient, RPA, STAB
   Michael Roemelt        : Original ROCIS implementation
   Masaaki Saitow         : Open-shell DLPNO-CCSD energy and density
   Barbara Sandhoefer     : DKH picture change effects
   Avijit Sen             : IP-ROCIS
   Kantharuban Sivalingam : CASSCF convergence, NEVPT2, FIC-MRCI
   Bernardo de Souza      : ESD, SOC TD-DFT
   Georgi Stoychev        : AutoAux, RI-MP2 NMR
   Willem Van den Heuvel  : Paramagnetic NMR
   Boris Wezisla          : Elementary symmetry handling
   Frank Wennmohs         : Technical directorship


 We gratefully acknowledge several colleagues who have allowed us to
 interface, adapt or use parts of their codes:
   Stefan Grimme, W. Hujo, H. Kruse,             : VdW corrections, initial TS optimization,
                  C. Bannwarth                     DFT functionals, gCP, sTDA/sTD-DF
   Ed Valeev, F. Pavosevic, A. Kumar             : LibInt (2-el integral package), F12 methods
   Garnet Chan, S. Sharma, J. Yang, R. Olivares  : DMRG
   Ulf Ekstrom                                   : XCFun DFT Library
   Mihaly Kallay                                 : mrcc  (arbitrary order and MRCC methods)
   Andreas Klamt, Michael Diedenhofen            : otool_cosmo (COSMO solvation model)
   Jiri Pittner, Ondrej Demel                    : Mk-CCSD
   Frank Weinhold                                : gennbo (NPA and NBO analysis)
   Christopher J. Cramer and Donald G. Truhlar   : smd solvation model
   Lars Goerigk                                  : TD-DFT with DH, B97 family of functionals
   V. Asgeirsson, H. Jonsson                     : NEB implementation
   FAccTs GmbH                                   : IRC, NEB, NEB-TS, Multilevel, MM, QM/MM, CI optimization
   S Lehtola, MJT Oliveira, MAL Marques          : LibXC Library


 Your calculation uses the libint2 library for the computation of 2-el integrals
 For citations please refer to: http://libint.valeyev.net

 Your ORCA version has been built with support for libXC version: 4.2.3
 For citations please refer to: https://tddft.org/programs/libxc/

 This ORCA versions uses:
   CBLAS   interface :  Fast vector & matrix operations
   LAPACKE interface :  Fast linear algebra routines
   SCALAPACK package :  Parallel linear algebra routines


----- Orbital basis set information -----
Your calculation utilizes the basis: aug-cc-pVTZ 
    H, B-Ne : Obtained from the ccRepo (grant-hill.group.shef.ac.uk/ccrepo) Feb. 2017
              R. A. Kendall, T. H. Dunning, Jr., R. J. Harrison, J. Chem. Phys. 96, 6796 (1992)
         He : Obtained from the ccRepo (grant-hill.group.shef.ac.uk/ccrepo) Feb. 2017
              D. E. Woon, T. H. Dunning, Jr., J. Chem. Phys. 100, 2975 (1994)
  Li-Be, Na : Obtained from the ccRepo (grant-hill.group.shef.ac.uk/ccrepo) Feb. 2017
              B. P. Prascher, D. E. Woon, K. A. Peterson, T. H. Dunning, Jr., A. K. Wilson, Theor. Chem. Acc. 128, 69 (2011)
         Mg : Obtained from the Peterson Research Group Website (tyr0.chem.wsu.edu/~kipeters) Feb. 2017
              B. P. Prascher, D. E. Woon, K. A. Peterson, T. H. Dunning, Jr., A. K. Wilson, Theor. Chem. Acc. 128, 69 (2011)
      Al-Ar : Obtained from the ccRepo (grant-hill.group.shef.ac.uk/ccrepo) Feb. 2017
              D. E. Woon, T. H. Dunning, Jr., J. Chem. Phys. 98, 1358 (1993)
      Sc-Zn : Obtained from the ccRepo (grant-hill.group.shef.ac.uk/ccrepo) Feb. 2017
              N. B. Balabanov, K. A. Peterson, J. Chem. Phys. 123, 064107 (2005)
              N. B. Balabanov, K. A. Peterson, J. Chem. Phys. 125, 074110 (2006)
      Ga-Kr : Obtained from the ccRepo (grant-hill.group.shef.ac.uk/ccrepo) Feb. 2017
              A. K. Wilson, D. E. Woon, K. A. Peterson, T. H. Dunning, Jr., J. Chem. Phys. 110, 7667 (1999)
     Ag, Au : Obtained from the Peterson Research Group Website (tyr0.chem.wsu.edu/~kipeters) Feb. 2017
              K. A. Peterson, C. Puzzarini, Theor. Chem. Acc. 114, 283 (2005)

================================================================================
                                        WARNINGS
                       Please study these warnings very carefully!
================================================================================


WARNING: The frozen-core approximation for MP2-gradient calculations is turned on by default.

INFO   : the flag for use of LIBINT has been found!

----- Orbital basis set information -----
Your calculation utilizes the basis: aug-cc-pVTZ 
    H, B-Ne : Obtained from the ccRepo (grant-hill.group.shef.ac.uk/ccrepo) Feb. 2017
              R. A. Kendall, T. H. Dunning, Jr., R. J. Harrison, J. Chem. Phys. 96, 6796 (1992)
         He : Obtained from the ccRepo (grant-hill.group.shef.ac.uk/ccrepo) Feb. 2017
              D. E. Woon, T. H. Dunning, Jr., J. Chem. Phys. 100, 2975 (1994)
  Li-Be, Na : Obtained from the ccRepo (grant-hill.group.shef.ac.uk/ccrepo) Feb. 2017
              B. P. Prascher, D. E. Woon, K. A. Peterson, T. H. Dunning, Jr., A. K. Wilson, Theor. Chem. Acc. 128, 69 (2011)
         Mg : Obtained from the Peterson Research Group Website (tyr0.chem.wsu.edu/~kipeters) Feb. 2017
              B. P. Prascher, D. E. Woon, K. A. Peterson, T. H. Dunning, Jr., A. K. Wilson, Theor. Chem. Acc. 128, 69 (2011)
      Al-Ar : Obtained from the ccRepo (grant-hill.group.shef.ac.uk/ccrepo) Feb. 2017
              D. E. Woon, T. H. Dunning, Jr., J. Chem. Phys. 98, 1358 (1993)
      Sc-Zn : Obtained from the ccRepo (grant-hill.group.shef.ac.uk/ccrepo) Feb. 2017
              N. B. Balabanov, K. A. Peterson, J. Chem. Phys. 123, 064107 (2005)
              N. B. Balabanov, K. A. Peterson, J. Chem. Phys. 125, 074110 (2006)
      Ga-Kr : Obtained from the ccRepo (grant-hill.group.shef.ac.uk/ccrepo) Feb. 2017
              A. K. Wilson, D. E. Woon, K. A. Peterson, T. H. Dunning, Jr., J. Chem. Phys. 110, 7667 (1999)
     Ag, Au : Obtained from the Peterson Research Group Website (tyr0.chem.wsu.edu/~kipeters) Feb. 2017
              K. A. Peterson, C. Puzzarini, Theor. Chem. Acc. 114, 283 (2005)

================================================================================
                                        WARNINGS
                       Please study these warnings very carefully!
================================================================================


WARNING: The frozen-core approximation for MP2-gradient calculations is turned on by default.

INFO   : the flag for use of LIBINT has been found!

----- Orbital basis set information -----
Your calculation utilizes the basis: aug-cc-pVTZ 
    H, B-Ne : Obtained from the ccRepo (grant-hill.group.shef.ac.uk/ccrepo) Feb. 2017
              R. A. Kendall, T. H. Dunning, Jr., R. J. Harrison, J. Chem. Phys. 96, 6796 (1992)
         He : Obtained from the ccRepo (grant-hill.group.shef.ac.uk/ccrepo) Feb. 2017
              D. E. Woon, T. H. Dunning, Jr., J. Chem. Phys. 100, 2975 (1994)
  Li-Be, Na : Obtained from the ccRepo (grant-hill.group.shef.ac.uk/ccrepo) Feb. 2017
              B. P. Prascher, D. E. Woon, K. A. Peterson, T. H. Dunning, Jr., A. K. Wilson, Theor. Chem. Acc. 128, 69 (2011)
         Mg : Obtained from the Peterson Research Group Website (tyr0.chem.wsu.edu/~kipeters) Feb. 2017
              B. P. Prascher, D. E. Woon, K. A. Peterson, T. H. Dunning, Jr., A. K. Wilson, Theor. Chem. Acc. 128, 69 (2011)
      Al-Ar : Obtained from the ccRepo (grant-hill.group.shef.ac.uk/ccrepo) Feb. 2017
              D. E. Woon, T. H. Dunning, Jr., J. Chem. Phys. 98, 1358 (1993)
      Sc-Zn : Obtained from the ccRepo (grant-hill.group.shef.ac.uk/ccrepo) Feb. 2017
              N. B. Balabanov, K. A. Peterson, J. Chem. Phys. 123, 064107 (2005)
              N. B. Balabanov, K. A. Peterson, J. Chem. Phys. 125, 074110 (2006)
      Ga-Kr : Obtained from the ccRepo (grant-hill.group.shef.ac.uk/ccrepo) Feb. 2017
              A. K. Wilson, D. E. Woon, K. A. Peterson, T. H. Dunning, Jr., J. Chem. Phys. 110, 7667 (1999)
     Ag, Au : Obtained from the Peterson Research Group Website (tyr0.chem.wsu.edu/~kipeters) Feb. 2017
              K. A. Peterson, C. Puzzarini, Theor. Chem. Acc. 114, 283 (2005)

================================================================================
                                        WARNINGS
                       Please study these warnings very carefully!
================================================================================


WARNING: The frozen-core approximation for MP2-gradient calculations is turned on by default.

INFO   : the flag for use of LIBINT has been found!

----- Orbital basis set information -----
Your calculation utilizes the basis: aug-cc-pVTZ 
    H, B-Ne : Obtained from the ccRepo (grant-hill.group.shef.ac.uk/ccrepo) Feb. 2017
              R. A. Kendall, T. H. Dunning, Jr., R. J. Harrison, J. Chem. Phys. 96, 6796 (1992)
         He : Obtained from the ccRepo (grant-hill.group.shef.ac.uk/ccrepo) Feb. 2017
              D. E. Woon, T. H. Dunning, Jr., J. Chem. Phys. 100, 2975 (1994)
  Li-Be, Na : Obtained from the ccRepo (grant-hill.group.shef.ac.uk/ccrepo) Feb. 2017
              B. P. Prascher, D. E. Woon, K. A. Peterson, T. H. Dunning, Jr., A. K. Wilson, Theor. Chem. Acc. 128, 69 (2011)
         Mg : Obtained from the Peterson Research Group Website (tyr0.chem.wsu.edu/~kipeters) Feb. 2017
              B. P. Prascher, D. E. Woon, K. A. Peterson, T. H. Dunning, Jr., A. K. Wilson, Theor. Chem. Acc. 128, 69 (2011)
      Al-Ar : Obtained from the ccRepo (grant-hill.group.shef.ac.uk/ccrepo) Feb. 2017
              D. E. Woon, T. H. Dunning, Jr., J. Chem. Phys. 98, 1358 (1993)
      Sc-Zn : Obtained from the ccRepo (grant-hill.group.shef.ac.uk/ccrepo) Feb. 2017
              N. B. Balabanov, K. A. Peterson, J. Chem. Phys. 123, 064107 (2005)
              N. B. Balabanov, K. A. Peterson, J. Chem. Phys. 125, 074110 (2006)
      Ga-Kr : Obtained from the ccRepo (grant-hill.group.shef.ac.uk/ccrepo) Feb. 2017
              A. K. Wilson, D. E. Woon, K. A. Peterson, T. H. Dunning, Jr., J. Chem. Phys. 110, 7667 (1999)
     Ag, Au : Obtained from the Peterson Research Group Website (tyr0.chem.wsu.edu/~kipeters) Feb. 2017
              K. A. Peterson, C. Puzzarini, Theor. Chem. Acc. 114, 283 (2005)

================================================================================
                                        WARNINGS
                       Please study these warnings very carefully!
================================================================================


WARNING: The frozen-core approximation for MP2-gradient calculations is turned on by default.

INFO   : the flag for use of LIBINT has been found!

----- Orbital basis set information -----
Your calculation utilizes the basis: aug-cc-pVTZ 
    H, B-Ne : Obtained from the ccRepo (grant-hill.group.shef.ac.uk/ccrepo) Feb. 2017
              R. A. Kendall, T. H. Dunning, Jr., R. J. Harrison, J. Chem. Phys. 96, 6796 (1992)
         He : Obtained from the ccRepo (grant-hill.group.shef.ac.uk/ccrepo) Feb. 2017
              D. E. Woon, T. H. Dunning, Jr., J. Chem. Phys. 100, 2975 (1994)
  Li-Be, Na : Obtained from the ccRepo (grant-hill.group.shef.ac.uk/ccrepo) Feb. 2017
              B. P. Prascher, D. E. Woon, K. A. Peterson, T. H. Dunning, Jr., A. K. Wilson, Theor. Chem. Acc. 128, 69 (2011)
         Mg : Obtained from the Peterson Research Group Website (tyr0.chem.wsu.edu/~kipeters) Feb. 2017
              B. P. Prascher, D. E. Woon, K. A. Peterson, T. H. Dunning, Jr., A. K. Wilson, Theor. Chem. Acc. 128, 69 (2011)
      Al-Ar : Obtained from the ccRepo (grant-hill.group.shef.ac.uk/ccrepo) Feb. 2017
              D. E. Woon, T. H. Dunning, Jr., J. Chem. Phys. 98, 1358 (1993)
      Sc-Zn : Obtained from the ccRepo (grant-hill.group.shef.ac.uk/ccrepo) Feb. 2017
              N. B. Balabanov, K. A. Peterson, J. Chem. Phys. 123, 064107 (2005)
              N. B. Balabanov, K. A. Peterson, J. Chem. Phys. 125, 074110 (2006)
      Ga-Kr : Obtained from the ccRepo (grant-hill.group.shef.ac.uk/ccrepo) Feb. 2017
              A. K. Wilson, D. E. Woon, K. A. Peterson, T. H. Dunning, Jr., J. Chem. Phys. 110, 7667 (1999)
     Ag, Au : Obtained from the Peterson Research Group Website (tyr0.chem.wsu.edu/~kipeters) Feb. 2017
              K. A. Peterson, C. Puzzarini, Theor. Chem. Acc. 114, 283 (2005)

================================================================================
                                        WARNINGS
                       Please study these warnings very carefully!
================================================================================


WARNING: The frozen-core approximation for MP2-gradient calculations is turned on by default.

INFO   : the flag for use of LIBINT has been found!

----- Orbital basis set information -----
Your calculation utilizes the basis: aug-cc-pVTZ 
    H, B-Ne : Obtained from the ccRepo (grant-hill.group.shef.ac.uk/ccrepo) Feb. 2017
              R. A. Kendall, T. H. Dunning, Jr., R. J. Harrison, J. Chem. Phys. 96, 6796 (1992)
         He : Obtained from the ccRepo (grant-hill.group.shef.ac.uk/ccrepo) Feb. 2017
              D. E. Woon, T. H. Dunning, Jr., J. Chem. Phys. 100, 2975 (1994)
  Li-Be, Na : Obtained from the ccRepo (grant-hill.group.shef.ac.uk/ccrepo) Feb. 2017
              B. P. Prascher, D. E. Woon, K. A. Peterson, T. H. Dunning, Jr., A. K. Wilson, Theor. Chem. Acc. 128, 69 (2011)
         Mg : Obtained from the Peterson Research Group Website (tyr0.chem.wsu.edu/~kipeters) Feb. 2017
              B. P. Prascher, D. E. Woon, K. A. Peterson, T. H. Dunning, Jr., A. K. Wilson, Theor. Chem. Acc. 128, 69 (2011)
      Al-Ar : Obtained from the ccRepo (grant-hill.group.shef.ac.uk/ccrepo) Feb. 2017
              D. E. Woon, T. H. Dunning, Jr., J. Chem. Phys. 98, 1358 (1993)
      Sc-Zn : Obtained from the ccRepo (grant-hill.group.shef.ac.uk/ccrepo) Feb. 2017
              N. B. Balabanov, K. A. Peterson, J. Chem. Phys. 123, 064107 (2005)
              N. B. Balabanov, K. A. Peterson, J. Chem. Phys. 125, 074110 (2006)
      Ga-Kr : Obtained from the ccRepo (grant-hill.group.shef.ac.uk/ccrepo) Feb. 2017
              A. K. Wilson, D. E. Woon, K. A. Peterson, T. H. Dunning, Jr., J. Chem. Phys. 110, 7667 (1999)
     Ag, Au : Obtained from the Peterson Research Group Website (tyr0.chem.wsu.edu/~kipeters) Feb. 2017
              K. A. Peterson, C. Puzzarini, Theor. Chem. Acc. 114, 283 (2005)

================================================================================
                                        WARNINGS
                       Please study these warnings very carefully!
================================================================================


WARNING: The frozen-core approximation for MP2-gradient calculations is turned on by default.

INFO   : the flag for use of LIBINT has been found!

----- Orbital basis set information -----
Your calculation utilizes the basis: aug-cc-pVTZ 
    H, B-Ne : Obtained from the ccRepo (grant-hill.group.shef.ac.uk/ccrepo) Feb. 2017
              R. A. Kendall, T. H. Dunning, Jr., R. J. Harrison, J. Chem. Phys. 96, 6796 (1992)
         He : Obtained from the ccRepo (grant-hill.group.shef.ac.uk/ccrepo) Feb. 2017
              D. E. Woon, T. H. Dunning, Jr., J. Chem. Phys. 100, 2975 (1994)
  Li-Be, Na : Obtained from the ccRepo (grant-hill.group.shef.ac.uk/ccrepo) Feb. 2017
              B. P. Prascher, D. E. Woon, K. A. Peterson, T. H. Dunning, Jr., A. K. Wilson, Theor. Chem. Acc. 128, 69 (2011)
         Mg : Obtained from the Peterson Research Group Website (tyr0.chem.wsu.edu/~kipeters) Feb. 2017
              B. P. Prascher, D. E. Woon, K. A. Peterson, T. H. Dunning, Jr., A. K. Wilson, Theor. Chem. Acc. 128, 69 (2011)
      Al-Ar : Obtained from the ccRepo (grant-hill.group.shef.ac.uk/ccrepo) Feb. 2017
              D. E. Woon, T. H. Dunning, Jr., J. Chem. Phys. 98, 1358 (1993)
      Sc-Zn : Obtained from the ccRepo (grant-hill.group.shef.ac.uk/ccrepo) Feb. 2017
              N. B. Balabanov, K. A. Peterson, J. Chem. Phys. 123, 064107 (2005)
              N. B. Balabanov, K. A. Peterson, J. Chem. Phys. 125, 074110 (2006)
      Ga-Kr : Obtained from the ccRepo (grant-hill.group.shef.ac.uk/ccrepo) Feb. 2017
              A. K. Wilson, D. E. Woon, K. A. Peterson, T. H. Dunning, Jr., J. Chem. Phys. 110, 7667 (1999)
     Ag, Au : Obtained from the Peterson Research Group Website (tyr0.chem.wsu.edu/~kipeters) Feb. 2017
              K. A. Peterson, C. Puzzarini, Theor. Chem. Acc. 114, 283 (2005)

================================================================================
                                        WARNINGS
                       Please study these warnings very carefully!
================================================================================


WARNING: The frozen-core approximation for MP2-gradient calculations is turned on by default.

INFO   : the flag for use of LIBINT has been found!

----- Orbital basis set information -----
Your calculation utilizes the basis: aug-cc-pVTZ 
    H, B-Ne : Obtained from the ccRepo (grant-hill.group.shef.ac.uk/ccrepo) Feb. 2017
              R. A. Kendall, T. H. Dunning, Jr., R. J. Harrison, J. Chem. Phys. 96, 6796 (1992)
         He : Obtained from the ccRepo (grant-hill.group.shef.ac.uk/ccrepo) Feb. 2017
              D. E. Woon, T. H. Dunning, Jr., J. Chem. Phys. 100, 2975 (1994)
  Li-Be, Na : Obtained from the ccRepo (grant-hill.group.shef.ac.uk/ccrepo) Feb. 2017
              B. P. Prascher, D. E. Woon, K. A. Peterson, T. H. Dunning, Jr., A. K. Wilson, Theor. Chem. Acc. 128, 69 (2011)
         Mg : Obtained from the Peterson Research Group Website (tyr0.chem.wsu.edu/~kipeters) Feb. 2017
              B. P. Prascher, D. E. Woon, K. A. Peterson, T. H. Dunning, Jr., A. K. Wilson, Theor. Chem. Acc. 128, 69 (2011)
      Al-Ar : Obtained from the ccRepo (grant-hill.group.shef.ac.uk/ccrepo) Feb. 2017
              D. E. Woon, T. H. Dunning, Jr., J. Chem. Phys. 98, 1358 (1993)
      Sc-Zn : Obtained from the ccRepo (grant-hill.group.shef.ac.uk/ccrepo) Feb. 2017
              N. B. Balabanov, K. A. Peterson, J. Chem. Phys. 123, 064107 (2005)
              N. B. Balabanov, K. A. Peterson, J. Chem. Phys. 125, 074110 (2006)
      Ga-Kr : Obtained from the ccRepo (grant-hill.group.shef.ac.uk/ccrepo) Feb. 2017
              A. K. Wilson, D. E. Woon, K. A. Peterson, T. H. Dunning, Jr., J. Chem. Phys. 110, 7667 (1999)
     Ag, Au : Obtained from the Peterson Research Group Website (tyr0.chem.wsu.edu/~kipeters) Feb. 2017
              K. A. Peterson, C. Puzzarini, Theor. Chem. Acc. 114, 283 (2005)

================================================================================
                                        WARNINGS
                       Please study these warnings very carefully!
================================================================================


WARNING: The frozen-core approximation for MP2-gradient calculations is turned on by default.

INFO   : the flag for use of LIBINT has been found!

================================================================================
                                       INPUT FILE
================================================================================
NAME = 6h2o.temelso.etal-orca.engrad-mp2.augccpvtz.inp
|  1> # 6h2o.temelso.etal-orca.engrad-mp2.augccpvtz
|  2> ! MP2 aug-cc-pVTZ EnGrad TightSCF FrozenCore
|  3> 
|  4> %pal
|  5>     nprocs 24
|  6> end
|  7> 
|  8> %maxcore 8000
|  9> 
| 10> %scf
| 11>     ConvForced true
| 12> end
| 13> 
| 14> *xyz 0 1
| 15> O  -1.735218018  -1.130833854   0.324878534
| 16> H  -1.545018018  -1.255833854  -0.620921466
| 17> H  -1.841918018  -0.154133854   0.359478534
| 18> O  -1.436318018   1.618866146  -0.083021466
| 19> H  -1.174318018   1.325966146  -0.973521466
| 20> H  -0.586218018   1.758666146   0.372278534
| 21> O  -0.545718018  -0.229233854  -2.185321466
| 22> H  -0.483518018  -0.316433854  -3.144121466
| 23> H   0.381581982  -0.297333854  -1.855121466
| 24> O   1.874181982  -0.380733854  -0.904521466
| 25> H   1.984181982   0.477966146  -0.464221466
| 26> H   1.652881982  -0.959333854  -0.151521466
| 27> O   0.638681982  -1.290433854   1.521378534
| 28> H  -0.283618018  -1.332033854   1.140778534
| 29> H   0.676881982  -1.977133854   2.197878534
| 30> O   1.128281982   1.427866146   1.292178534
| 31> H   1.436881982   1.958866146   2.036578534
| 32> H   0.990381982   0.524766146   1.648978534
| 33> *
| 34> 
| 35> 
| 36> $new_job
| 37> 
| 38> # 6h2o.temelso.etal-orca.engrad-mp2.augccpvtz
| 39> ! MP2 aug-cc-pVTZ EnGrad TightSCF FrozenCore
| 40> 
| 41> %pal
| 42>     nprocs 24
| 43> end
| 44> 
| 45> %maxcore 8000
| 46> 
| 47> %scf
| 48>     ConvForced true
| 49> end
| 50> 
| 51> *xyz 0 1
| 52> O   0.779349480  -1.245089435  -1.332072868
| 53> H   1.631449480  -0.884489435  -0.991072868
| 54> H   1.019049480  -1.859789435  -2.035972868
| 55> O  -0.831350520   1.168010565  -1.169772868
| 56> H  -0.382550520   0.372510565  -1.509272868
| 57> H  -1.684550520   0.821910565  -0.834772868
| 58> O   0.664149480   1.379010565   1.040727132
| 59> H   0.080349480   1.447910565   0.235127132
| 60> H   0.598349480   2.232810565   1.485327132
| 61> O  -0.593150520  -1.279989435   1.246327132
| 62> H  -0.149450520  -1.504589435   0.408127132
| 63> H  -0.159050520  -0.445589435   1.498327132
| 64> O   2.815449480   0.072310565  -0.083972868
| 65> H   2.196349480   0.644310565   0.421527132
| 66> H   3.367449480  -0.351489435   0.585027132
| 67> O  -2.877150520  -0.046089435   0.292627132
| 68> H  -2.199650520  -0.625989435   0.708427132
| 69> H  -3.639850520  -0.612089435   0.126627132
| 70> *
| 71> 
| 72> 
| 73> $new_job
| 74> 
| 75> # 6h2o.temelso.etal-orca.engrad-mp2.augccpvtz
| 76> ! MP2 aug-cc-pVTZ EnGrad TightSCF FrozenCore
| 77> 
| 78> %pal
| 79>     nprocs 24
| 80> end
| 81> 
| 82> %maxcore 8000
| 83> 
| 84> %scf
| 85>     ConvForced true
| 86> end
| 87> 
| 88> *xyz 0 1
| 89> O  -2.460422053  -1.194417099   0.277657794
| 90> H  -3.102722053  -1.699217099  -0.235542206
| 91> H  -1.585122053  -1.380417099  -0.149142206
| 92> O  -0.060122053  -1.358117099  -0.943342206
| 93> H   0.723277947  -1.615517099  -0.413042206
| 94> H   0.095677947  -0.416317099  -1.132842206
| 95> O   2.239477947  -1.683517099   0.629857794
| 96> H   3.047677947  -2.065317099   0.266357794
| 97> H   2.426477947  -0.723117099   0.705557794
| 98> O   2.429577947   1.090882901   0.629857794
| 99> H   1.626077947   1.374282901   0.144957794
|100> H   2.436777947   1.620182901   1.436357794
|101> O  -2.292522053   1.502082901   0.282457794
|102> H  -2.476522053   0.529782901   0.311357794
|103> H  -2.454922053   1.813482901   1.181157794
|104> O   0.137777947   1.563782901  -0.880142206
|105> H   0.107377947   2.181482901  -1.621042206
|106> H  -0.745122053   1.639582901  -0.436142206
|107> *
|108> 
|109> 
|110> $new_job
|111> 
|112> # 6h2o.temelso.etal-orca.engrad-mp2.augccpvtz
|113> ! MP2 aug-cc-pVTZ EnGrad TightSCF FrozenCore
|114> 
|115> %pal
|116>     nprocs 24
|117> end
|118> 
|119> %maxcore 8000
|120> 
|121> %scf
|122>     ConvForced true
|123> end
|124> 
|125> *xyz 0 1
|126> O   2.172877856   1.509648730  -0.252314015
|127> H   3.063977856   1.775048730   0.005885985
|128> H   2.266077856   0.573648730  -0.562714015
|129> O   2.203977856  -1.118751270  -0.873514015
|130> H   2.024077856  -1.446051270  -1.763214015
|131> H   1.428077856  -1.411651270  -0.330014015
|132> O   0.085777856  -1.608851270   0.743785985
|133> H   0.017777856  -0.742851270   1.182585985
|134> H  -0.757622144  -1.676251270   0.248185985
|135> O  -2.271822144  -1.420251270  -0.761914015
|136> H  -3.114222144  -1.792151270  -0.473314015
|137> H  -2.372422144  -0.449551270  -0.648814015
|138> O  -2.230822144   1.301848730  -0.240414015
|139> H  -2.111722144   1.939648730  -0.955014015
|140> H  -1.434322144   1.403648730   0.322385985
|141> O   0.040077856   1.251548730   1.377085985
|142> H   0.117277856   1.725948730   2.213685985
|143> H   0.871977856   1.446848730   0.875985985
|144> *
|145> 
|146> 
|147> $new_job
|148> 
|149> # 6h2o.temelso.etal-orca.engrad-mp2.augccpvtz
|150> ! MP2 aug-cc-pVTZ EnGrad TightSCF FrozenCore
|151> 
|152> %pal
|153>     nprocs 24
|154> end
|155> 
|156> %maxcore 8000
|157> 
|158> %scf
|159>     ConvForced true
|160> end
|161> 
|162> *xyz 0 1
|163> O   0.161625757   2.680092658   0.338838928
|164> H   0.154525757   3.147592658   1.182638928
|165> H  -0.714274243   2.228192658   0.297038928
|166> O  -2.377574243  -1.256207342   0.342238928
|167> H  -1.571374243  -1.760607342   0.080338928
|168> H  -2.681874243  -1.684207342   1.151438928
|169> O   2.375925757   1.255092658  -0.343961072
|170> H   2.680125757   1.681292658  -1.154161072
|171> H   1.571325757   1.761592658  -0.081261072
|172> O  -0.161274243  -2.678307342  -0.340461072
|173> H   0.715325757  -2.227907342  -0.297761072
|174> H  -0.155074243  -3.144207342  -1.185161072
|175> O   2.272025757  -1.461807342  -0.282761072
|176> H   2.883725757  -1.705407342   0.422238928
|177> H   2.300125757  -0.476007342  -0.309861072
|178> O  -2.270874243   1.461192658   0.286138928
|179> H  -2.881074243   1.703292658  -0.420661072
|180> H  -2.299174243   0.475492658   0.314638928
|181> *
|182> 
|183> 
|184> $new_job
|185> 
|186> # 6h2o.temelso.etal-orca.engrad-mp2.augccpvtz
|187> ! MP2 aug-cc-pVTZ EnGrad TightSCF FrozenCore
|188> 
|189> %pal
|190>     nprocs 24
|191> end
|192> 
|193> %maxcore 8000
|194> 
|195> %scf
|196>     ConvForced true
|197> end
|198> 
|199> *xyz 0 1
|200> O  -0.811455384   1.781064622   0.281737248
|201> H   0.070144616   1.745064622  -0.182762752
|202> H  -1.079855384   2.706964622   0.233137248
|203> O  -0.182855384  -1.951135378   0.352537248
|204> H  -0.101755384  -1.429735378   1.174037248
|205> H  -0.990455384  -1.582835378  -0.055862752
|206> O   1.546844616   1.531264622  -0.948962752
|207> H   2.327544616   1.766464622  -0.431662752
|208> H   1.667444616   0.566064622  -1.143462752
|209> O   1.810544616  -1.126235378  -1.276062752
|210> H   1.715444616  -1.570935378  -2.126762752
|211> H   1.101544616  -1.512035378  -0.698862752
|212> O  -0.050055384   0.056464622   2.388637248
|213> H  -0.548455384   0.107664622   3.213037248
|214> H  -0.403855384   0.774864622   1.828337248
|215> O  -2.230755384  -0.395235378  -0.839162752
|216> H  -1.885755384   0.453964622  -0.496662752
|217> H  -3.177955384  -0.377535378  -0.657262752
|218> *
|219> 
|220> 
|221> $new_job
|222> 
|223> # 6h2o.temelso.etal-orca.engrad-mp2.augccpvtz
|224> ! MP2 aug-cc-pVTZ EnGrad TightSCF FrozenCore
|225> 
|226> %pal
|227>     nprocs 24
|228> end
|229> 
|230> %maxcore 8000
|231> 
|232> %scf
|233>     ConvForced true
|234> end
|235> 
|236> *xyz 0 1
|237> O   0.058018879  -2.426050180   1.035099009
|238> H   0.302618879  -3.358750180   1.047599009
|239> H   0.906818879  -1.939250180   0.908999009
|240> O   2.388118879  -1.065850180   0.656099009
|241> H   2.307118879  -0.278950180   0.066699009
|242> H   2.849618879  -0.736250180   1.436699009
|243> O   2.168818879   1.107449820  -0.975400991
|244> H   1.359518879   1.656549820  -0.852500991
|245> H   2.222118879   0.947349820  -1.925000991
|246> O  -2.177281121  -1.457150180  -0.187500991
|247> H  -2.225281121  -1.842250180  -1.070500991
|248> H  -1.366281121  -1.844550180   0.216999009
|249> O  -0.057981121   2.598849820  -0.479800991
|250> H  -0.312181121   3.378149820  -0.987800991
|251> H  -0.902981121   2.121849820  -0.301800991
|252> O  -2.380181121   1.256149820  -0.004700991
|253> H  -2.308581121   0.274749820  -0.072500991
|254> H  -2.824781121   1.408649820   0.837899009
|255> *
|256> 
|257> 
|258> $new_job
|259> 
|260> # 6h2o.temelso.etal-orca.engrad-mp2.augccpvtz
|261> ! MP2 aug-cc-pVTZ EnGrad TightSCF FrozenCore
|262> 
|263> %pal
|264>     nprocs 24
|265> end
|266> 
|267> %maxcore 8000
|268> 
|269> %scf
|270>     ConvForced true
|271> end
|272> 
|273> *xyz 0 1
|274> O  -2.237466189   1.407374575   0.800517938
|275> H  -2.351666189   1.548974575   1.748217938
|276> H  -2.258866189   0.428674575   0.689217938
|277> O  -2.190166189  -1.298825425   0.478517938
|278> H  -1.475066189  -1.682825425  -0.080782062
|279> H  -2.958866189  -1.861025425   0.328917938
|280> O  -0.158266189  -2.356925425  -1.005582062
|281> H   0.738533811  -2.053825425  -0.726482062
|282> H  -0.145666189  -2.296725425  -1.968182062
|283> O  -0.010766189   2.552874575  -0.274382062
|284> H  -0.262366189   2.791174575  -1.174582062
|285> H  -0.821566189   2.143774575   0.112217938
|286> O   2.316833811  -1.490725425  -0.254882062
|287> H   2.674133811  -1.903625425   0.540717938
|288> H   2.340633811  -0.523825425  -0.066582062
|289> O   2.282633811   1.181874575   0.282417938
|290> H   1.465933811   1.685974575   0.057417938
|291> H   3.010333811   1.792374575   0.117517938
|292> *
|293> 
|294>                          ****END OF INPUT****
================================================================================


                 $$$$$$$$$$$$$$$$$$$$$$$$$$$$$$$$$$$$$$$$$$$$$$ 
                 $ THERE ARE  8 JOBS TO BE PROCESSED THIS RUN $
                 $$$$$$$$$$$$$$$$$$$$$$$$$$$$$$$$$$$$$$$$$$$$$$ 




                 $$$$$$$$$$$$$$$$  JOB NUMBER  1 $$$$$$$$$$$$$$


                     *******************************
                     * Energy+Gradient Calculation *
                     *******************************

---------------------------------
CARTESIAN COORDINATES (ANGSTROEM)
---------------------------------
  O     -1.735218   -1.130834    0.324879
  H     -1.545018   -1.255834   -0.620921
  H     -1.841918   -0.154134    0.359479
  O     -1.436318    1.618866   -0.083021
  H     -1.174318    1.325966   -0.973521
  H     -0.586218    1.758666    0.372279
  O     -0.545718   -0.229234   -2.185321
  H     -0.483518   -0.316434   -3.144121
  H      0.381582   -0.297334   -1.855121
  O      1.874182   -0.380734   -0.904521
  H      1.984182    0.477966   -0.464221
  H      1.652882   -0.959334   -0.151521
  O      0.638682   -1.290434    1.521379
  H     -0.283618   -1.332034    1.140779
  H      0.676882   -1.977134    2.197879
  O      1.128282    1.427866    1.292179
  H      1.436882    1.958866    2.036579
  H      0.990382    0.524766    1.648979

----------------------------
CARTESIAN COORDINATES (A.U.)
----------------------------
  NO LB      ZA    FRAG     MASS         X           Y           Z
   0 O     8.0000    0    15.999   -3.279087   -2.136966    0.613931
   1 H     1.0000    0     1.008   -2.919661   -2.373182   -1.173372
   2 H     1.0000    0     1.008   -3.480721   -0.291271    0.679316
   3 O     8.0000    0    15.999   -2.714248    3.059214   -0.156888
   4 H     1.0000    0     1.008   -2.219139    2.505713   -1.839689
   5 H     1.0000    0     1.008   -1.107792    3.323397    0.703504
   6 O     8.0000    0    15.999   -1.031258   -0.433189   -4.129659
   7 H     1.0000    0     1.008   -0.913717   -0.597973   -5.941529
   8 H     1.0000    0     1.008    0.721085   -0.561880   -3.505672
   9 O     8.0000    0    15.999    3.541691   -0.719483   -1.709298
  10 H     1.0000    0     1.008    3.749561    0.903225   -0.877251
  11 H     1.0000    0     1.008    3.123494   -1.812878   -0.286334
  12 O     8.0000    0    15.999    1.206934   -2.438567    2.874989
  13 H     1.0000    0     1.008   -0.535960   -2.517179    2.155759
  14 H     1.0000    0     1.008    1.279122   -3.736242    4.153389
  15 O     8.0000    0    15.999    2.132144    2.698276    2.441864
  16 H     1.0000    0     1.008    2.715313    3.701721    3.848576
  17 H     1.0000    0     1.008    1.871551    0.991664    3.116118

--------------------------------
INTERNAL COORDINATES (ANGSTROEM)
--------------------------------
 O      0   0   0     0.000000000000     0.00000000     0.00000000
 H      1   0   0     0.972799403783     0.00000000     0.00000000
 H      1   2   0     0.983120002848   100.54998879     0.00000000
 O      3   1   2     1.871856460843   155.39032860   320.73269285
 H      4   3   1     0.973357416369    89.40255323    32.58033239
 H      4   3   1     0.974429135443   102.38457220   288.74338383
 O      5   4   3     2.069358412649   147.52853314   338.29774066
 H      7   5   4     0.964764282092   132.02723280   167.23721017
 H      7   5   4     0.986688877002    98.12776626   286.58491508
 O      9   7   5     1.771567294799   167.06875928    43.49635480
 H     10   9   7     0.971251656369   107.28065092   295.61858019
 H     10   9   7     0.975069561621   104.54241470    42.91733139
 O     12  10   9     1.984142953519   150.01367577   292.85193706
 H     13  12  10     0.998611140535    99.07341848    66.52701449
 H     13  12  10     0.964711552745   133.61332504   188.91496492
 O      6   4   3     1.973614678705   162.10237917    18.41110069
 H     16   6   4     0.965052495981   123.03125463   219.21729657
 H     16   6   4     0.980771257735   101.63979429   336.86061194

---------------------------
INTERNAL COORDINATES (A.U.)
---------------------------
 O      0   0   0     0.000000000000     0.00000000     0.00000000
 H      1   0   0     1.838324456391     0.00000000     0.00000000
 H      1   2   0     1.857827562163   100.54998879     0.00000000
 O      3   1   2     3.537296073005   155.39032860   320.73269285
 H      4   3   1     1.839378947358    89.40255323    32.58033239
 H      4   3   1     1.841404202901   102.38457220   288.74338383
 O      5   4   3     3.910520672832   147.52853314   338.29774066
 H      7   5   4     1.823140276943   132.02723280   167.23721017
 H      7   5   4     1.864571756921    98.12776626   286.58491508
 O      9   7   5     3.347777014981   167.06875928    43.49635480
 H     10   9   7     1.835399637655   107.28065092   295.61858019
 H     10   9   7     1.842614432987   104.54241470    42.91733139
 O     12  10   9     3.749486792701   150.01367577   292.85193706
 H     13  12  10     1.887101569893    99.07341848    66.52701449
 H     13  12  10     1.823040632918   133.61332504   188.91496492
 O      6   4   3     3.729591236640   162.10237917    18.41110069
 H     16   6   4     1.823684922262   123.03125463   219.21729657
 H     16   6   4     1.853389077142   101.63979429   336.86061194

---------------------
BASIS SET INFORMATION
---------------------
There are 2 groups of distinct atoms

 Group   1 Type O   : 19s6p3d2f contracted to 5s4p3d2f pattern {88111/3111/111/11}
 Group   2 Type H   : 6s3p2d contracted to 4s3p2d pattern {3111/111/11}

Atom   0O    basis set group =>   1
Atom   1H    basis set group =>   2
Atom   2H    basis set group =>   2
Atom   3O    basis set group =>   1
Atom   4H    basis set group =>   2
Atom   5H    basis set group =>   2
Atom   6O    basis set group =>   1
Atom   7H    basis set group =>   2
Atom   8H    basis set group =>   2
Atom   9O    basis set group =>   1
Atom  10H    basis set group =>   2
Atom  11H    basis set group =>   2
Atom  12O    basis set group =>   1
Atom  13H    basis set group =>   2
Atom  14H    basis set group =>   2
Atom  15O    basis set group =>   1
Atom  16H    basis set group =>   2
Atom  17H    basis set group =>   2


           ************************************************************
           *        Program running with 24 parallel MPI-processes    *
           *              working on a common directory               *
           ************************************************************
------------------------------------------------------------------------------
                           ORCA GTO INTEGRAL CALCULATION
------------------------------------------------------------------------------

                         BASIS SET STATISTICS AND STARTUP INFO

 # of primitive gaussian shells          ...  312
 # of primitive gaussian functions       ...  696
 # of contracted shells                  ...  192
 # of contracted basis functions         ...  552
 Highest angular momentum                ...    3
 Maximum contraction depth               ...    8
 Integral package used                   ... LIBINT
 Integral threshhold            Thresh   ...  2.500e-11
 Primitive cut-off              TCut     ...  2.500e-12


------------------------------ INTEGRAL EVALUATION ----------------------------


 * One electron integrals 
 Pre-screening matrix                    ... done
 Shell pair data                         ... done (   0.005 sec)



           ************************************************************
           *        Program running with 24 parallel MPI-processes    *
           *              working on a common directory               *
           ************************************************************
-------------------------------------------------------------------------------
                                 ORCA SCF
-------------------------------------------------------------------------------

------------
SCF SETTINGS
------------
Hamiltonian:
 Ab initio Hamiltonian  Method          .... Hartree-Fock(GTOs)


General Settings:
 Integral files         IntName         .... 6h2o.temelso.etal-orca.engrad-mp2.augccpvtz
 Hartree-Fock type      HFTyp           .... RHF
 Total Charge           Charge          ....    0
 Multiplicity           Mult            ....    1
 Number of Electrons    NEL             ....   60
 Basis Dimension        Dim             ....  552
 Nuclear Repulsion      ENuc            ....    303.8683733542 Eh

Convergence Acceleration:
 DIIS                   CNVDIIS         .... on
   Start iteration      DIISMaxIt       ....    12
   Startup error        DIISStart       ....  0.200000
   # of expansion vecs  DIISMaxEq       ....     5
   Bias factor          DIISBfac        ....   1.050
   Max. coefficient     DIISMaxC        ....  10.000
 Newton-Raphson         CNVNR           .... off
 SOSCF                  CNVSOSCF        .... on
   Start iteration      SOSCFMaxIt      ....   150
   Startup grad/error   SOSCFStart      ....  0.003300
 Level Shifting         CNVShift        .... on
   Level shift para.    LevelShift      ....    0.2500
   Turn off err/grad.   ShiftErr        ....    0.0010
 Zerner damping         CNVZerner       .... off
 Static damping         CNVDamp         .... on
   Fraction old density DampFac         ....    0.7000
   Max. Damping (<1)    DampMax         ....    0.9800
   Min. Damping (>=0)   DampMin         ....    0.0000
   Turn off err/grad.   DampErr         ....    0.1000
 Fernandez-Rico         CNVRico         .... off

SCF Procedure:
 Maximum # iterations   MaxIter         ....   125
 SCF integral mode      SCFMode         .... Direct
   Integral package                     .... LIBINT
 Reset frequency        DirectResetFreq ....    20
 Integral Threshold     Thresh          ....  2.500e-11 Eh
 Primitive CutOff       TCut            ....  2.500e-12 Eh

Convergence Tolerance:
 Convergence Check Mode ConvCheckMode   .... Total+1el-Energy
 Convergence forced     ConvForced      .... 1
 Energy Change          TolE            ....  1.000e-08 Eh
 1-El. energy change                    ....  1.000e-05 Eh
 Orbital Gradient       TolG            ....  1.000e-05
 Orbital Rotation angle TolX            ....  1.000e-05
 DIIS Error             TolErr          ....  5.000e-07


Diagonalization of the overlap matrix:
Smallest eigenvalue                        ... 3.152e-05
Time for diagonalization                   ...    0.042 sec
Threshold for overlap eigenvalues          ... 1.000e-08
Number of eigenvalues below threshold      ... 0
Time for construction of square roots      ...    0.049 sec
Total time needed                          ...    0.093 sec

-------------------
DFT GRID GENERATION
-------------------

General Integration Accuracy     IntAcc      ...  4.340
Radial Grid Type                 RadialGrid  ... Gauss-Chebyshev
Angular Grid (max. acc.)         AngularGrid ... Lebedev-110
Angular grid pruning method      GridPruning ... 3 (G Style)
Weight generation scheme         WeightScheme... Becke
Basis function cutoff            BFCut       ...    1.0000e-11
Integration weight cutoff        WCut        ...    1.0000e-14
Grids for H and He will be reduced by one unit

# of grid points (after initial pruning)     ...  19824 (   0.0 sec)
# of grid points (after weights+screening)   ...  18455 (   0.0 sec)
nearest neighbour list constructed           ...    0.0 sec
Grid point re-assignment to atoms done       ...    0.0 sec
Grid point division into batches done        ...    0.0 sec
Reduced shell lists constructed in    0.0 sec

Total number of grid points                  ...    18455
Total number of batches                      ...      298
Average number of points per batch           ...       61
Average number of grid points per atom       ...     1025
Average number of shells per batch           ...   127.71 (66.52%)
Average number of basis functions per batch  ...   352.71 (63.90%)
Average number of large shells per batch     ...   101.07 (79.14%)
Average number of large basis fcns per batch ...   272.64 (77.30%)
Maximum spatial batch extension              ...  14.62, 14.47, 12.26 au
Average spatial batch extension              ...   0.16,  0.14,  0.16 au

Time for grid setup =    0.043 sec

------------------------------
INITIAL GUESS: MODEL POTENTIAL
------------------------------
Loading Hartree-Fock densities                     ... done
Calculating cut-offs                               ... done
Setting up the integral package                    ... done
Initializing the effective Hamiltonian             ... done
Starting the Coulomb interaction                   ... done (   0.0 sec)
Reading the grid                                   ... done
Mapping shells                                     ... done
Starting the XC term evaluation                    ... done (   0.0 sec)
Transforming the Hamiltonian                       ... done (   0.0 sec)
Diagonalizing the Hamiltonian                      ... done (   0.0 sec)
Back transforming the eigenvectors                 ... done (   0.0 sec)
Now organizing SCF variables                       ... done
                      ------------------
                      INITIAL GUESS DONE (   0.3 sec)
                      ------------------
--------------
SCF ITERATIONS
--------------
ITER       Energy         Delta-E        Max-DP      RMS-DP      [F,P]     Damp
               ***  Starting incremental Fock matrix formation  ***
  0   -455.9157491219   0.000000000000 0.02713923  0.00043432  0.3526659 0.7000
  1   -456.1051635686  -0.189414446670 0.01712350  0.00030739  0.2100382 0.7000
                               ***Turning on DIIS***
  2   -456.2064767271  -0.101313158461 0.01206566  0.00019031  0.1153160 0.7000
  3   -457.0553898702  -0.848913143180 0.04707618  0.00043380  0.0840842 0.0000
  4   -456.2602256465   0.795164223725 0.00579201  0.00006351  0.0129552 0.0000
                      *** Initiating the SOSCF procedure ***
                           *** Shutting down DIIS ***
                      *** Re-Reading the Fockian *** 
                      *** Removing any level shift *** 
ITER      Energy       Delta-E        Grad      Rot      Max-DP    RMS-DP
  5   -456.39034317  -0.1301175202  0.000818  0.000818  0.001965  0.000030
               *** Restarting incremental Fock matrix formation ***
  6   -456.40353349  -0.0131903253  0.000343  0.000451  0.001018  0.000013
  7   -456.40356344  -0.0000299469  0.000133  0.000361  0.001096  0.000012
  8   -456.40357058  -0.0000071377  0.000057  0.000035  0.000248  0.000003
  9   -456.40357110  -0.0000005229  0.000010  0.000012  0.000023  0.000000
                  ***Gradient check signals convergence***
              ***Rediagonalizing the Fockian in SOSCF/NRSCF***

               *****************************************************
               *                     SUCCESS                       *
               *           SCF CONVERGED AFTER  10 CYCLES          *
               *****************************************************


----------------
TOTAL SCF ENERGY
----------------

Total Energy       :         -456.40357112 Eh          -12419.37256 eV

Components:
Nuclear Repulsion  :          303.86837335 Eh            8268.67881 eV
Electronic Energy  :         -760.27194448 Eh          -20688.05137 eV
One Electron Energy:        -1235.74345998 Eh          -33626.28907 eV
Two Electron Energy:          475.47151550 Eh           12938.23770 eV

Virial components:
Potential Energy   :         -912.07875897 Eh          -24818.92480 eV
Kinetic Energy     :          455.67518785 Eh           12399.55224 eV
Virial Ratio       :            2.00159847


---------------
SCF CONVERGENCE
---------------

  Last Energy change         ...   -2.1675e-08  Tolerance :   1.0000e-08
  Last MAX-Density change    ...    7.7976e-06  Tolerance :   1.0000e-07
  Last RMS-Density change    ...    1.3294e-07  Tolerance :   5.0000e-09
  Last Orbital Gradient      ...    2.1120e-06  Tolerance :   1.0000e-05
  Last Orbital Rotation      ...    3.0292e-06  Tolerance :   1.0000e-05

             **** THE GBW FILE WAS UPDATED (6h2o.temelso.etal-orca.engrad-mp2.augccpvtz.gbw) ****
             **** DENSITY FILE WAS UPDATED (6h2o.temelso.etal-orca.engrad-mp2.augccpvtz.scfp) ****
             **** ENERGY FILE WAS UPDATED (6h2o.temelso.etal-orca.engrad-mp2.augccpvtz.en.tmp) ****
             **** THE GBW FILE WAS UPDATED (6h2o.temelso.etal-orca.engrad-mp2.augccpvtz.gbw) ****
             **** DENSITY FILE WAS UPDATED (6h2o.temelso.etal-orca.engrad-mp2.augccpvtz.scfp) ****
----------------
ORBITAL ENERGIES
----------------

  NO   OCC          E(Eh)            E(eV) 
   0   2.0000     -20.580361      -560.0201 
   1   2.0000     -20.575299      -559.8824 
   2   2.0000     -20.564834      -559.5976 
   3   2.0000     -20.564323      -559.5837 
   4   2.0000     -20.553129      -559.2791 
   5   2.0000     -20.544941      -559.0563 
   6   2.0000      -1.374023       -37.3891 
   7   2.0000      -1.359400       -36.9912 
   8   2.0000      -1.355823       -36.8938 
   9   2.0000      -1.346448       -36.6387 
  10   2.0000      -1.336147       -36.3584 
  11   2.0000      -1.325207       -36.0607 
  12   2.0000      -0.745708       -20.2917 
  13   2.0000      -0.729336       -19.8462 
  14   2.0000      -0.723352       -19.6834 
  15   2.0000      -0.708786       -19.2871 
  16   2.0000      -0.699200       -19.0262 
  17   2.0000      -0.695010       -18.9122 
  18   2.0000      -0.628122       -17.0921 
  19   2.0000      -0.621107       -16.9012 
  20   2.0000      -0.598531       -16.2869 
  21   2.0000      -0.587367       -15.9831 
  22   2.0000      -0.578508       -15.7420 
  23   2.0000      -0.553316       -15.0565 
  24   2.0000      -0.524191       -14.2640 
  25   2.0000      -0.522665       -14.2224 
  26   2.0000      -0.511647       -13.9226 
  27   2.0000      -0.508242       -13.8300 
  28   2.0000      -0.499794       -13.6001 
  29   2.0000      -0.485290       -13.2054 
  30   0.0000       0.022314         0.6072 
  31   0.0000       0.034549         0.9401 
  32   0.0000       0.037284         1.0145 
  33   0.0000       0.055565         1.5120 
  34   0.0000       0.061110         1.6629 
  35   0.0000       0.062209         1.6928 
  36   0.0000       0.067679         1.8416 
  37   0.0000       0.070958         1.9309 
  38   0.0000       0.073383         1.9968 
  39   0.0000       0.086269         2.3475 
  40   0.0000       0.090213         2.4548 
  41   0.0000       0.095908         2.6098 
  42   0.0000       0.137210         3.7337 
  43   0.0000       0.146261         3.9800 
  44   0.0000       0.147669         4.0183 
  45   0.0000       0.163146         4.4394 
  46   0.0000       0.168889         4.5957 
  47   0.0000       0.170961         4.6521 
  48   0.0000       0.179362         4.8807 
  49   0.0000       0.191288         5.2052 
  50   0.0000       0.196224         5.3395 
  51   0.0000       0.202704         5.5159 
  52   0.0000       0.203463         5.5365 
  53   0.0000       0.209328         5.6961 
  54   0.0000       0.212617         5.7856 
  55   0.0000       0.218489         5.9454 
  56   0.0000       0.221911         6.0385 
  57   0.0000       0.226152         6.1539 
  58   0.0000       0.231984         6.3126 
  59   0.0000       0.236837         6.4447 
  60   0.0000       0.245364         6.6767 
  61   0.0000       0.249222         6.7817 
  62   0.0000       0.260750         7.0954 
  63   0.0000       0.262897         7.1538 
  64   0.0000       0.270067         7.3489 
  65   0.0000       0.280110         7.6222 
  66   0.0000       0.294697         8.0191 
  67   0.0000       0.309099         8.4110 
  68   0.0000       0.318428         8.6649 
  69   0.0000       0.330373         8.9899 
  70   0.0000       0.334730         9.1085 
  71   0.0000       0.352683         9.5970 
  72   0.0000       0.362450         9.8628 
  73   0.0000       0.365694         9.9510 
  74   0.0000       0.370224        10.0743 
  75   0.0000       0.378452        10.2982 
  76   0.0000       0.386991        10.5306 
  77   0.0000       0.391107        10.6426 
  78   0.0000       0.401642        10.9292 
  79   0.0000       0.405721        11.0402 
  80   0.0000       0.413320        11.2470 
  81   0.0000       0.413592        11.2544 
  82   0.0000       0.417640        11.3646 
  83   0.0000       0.423628        11.5275 
  84   0.0000       0.428583        11.6623 
  85   0.0000       0.434621        11.8266 
  86   0.0000       0.440658        11.9909 
  87   0.0000       0.442093        12.0300 
  88   0.0000       0.455840        12.4040 
  89   0.0000       0.457885        12.4597 
  90   0.0000       0.468335        12.7440 
  91   0.0000       0.469067        12.7640 
  92   0.0000       0.479440        13.0462 
  93   0.0000       0.482909        13.1406 
  94   0.0000       0.484117        13.1735 
  95   0.0000       0.485823        13.2199 
  96   0.0000       0.495228        13.4758 
  97   0.0000       0.501311        13.6414 
  98   0.0000       0.506830        13.7916 
  99   0.0000       0.512313        13.9408 
 100   0.0000       0.521887        14.2013 
 101   0.0000       0.527238        14.3469 
 102   0.0000       0.530128        14.4255 
 103   0.0000       0.542379        14.7589 
 104   0.0000       0.548527        14.9262 
 105   0.0000       0.553370        15.0580 
 106   0.0000       0.556030        15.1303 
 107   0.0000       0.568646        15.4736 
 108   0.0000       0.572110        15.5679 
 109   0.0000       0.584256        15.8984 
 110   0.0000       0.590032        16.0556 
 111   0.0000       0.601772        16.3751 
 112   0.0000       0.619769        16.8648 
 113   0.0000       0.631573        17.1860 
 114   0.0000       0.646803        17.6004 
 115   0.0000       0.655378        17.8337 
 116   0.0000       0.670054        18.2331 
 117   0.0000       0.688630        18.7386 
 118   0.0000       0.696322        18.9479 
 119   0.0000       0.708584        19.2816 
 120   0.0000       0.729051        19.8385 
 121   0.0000       0.744476        20.2582 
 122   0.0000       0.756259        20.5788 
 123   0.0000       0.764126        20.7929 
 124   0.0000       0.766209        20.8496 
 125   0.0000       0.776988        21.1429 
 126   0.0000       0.786470        21.4009 
 127   0.0000       0.800411        21.7803 
 128   0.0000       0.802480        21.8366 
 129   0.0000       0.808686        22.0055 
 130   0.0000       0.814421        22.1615 
 131   0.0000       0.822997        22.3949 
 132   0.0000       0.828186        22.5361 
 133   0.0000       0.842713        22.9314 
 134   0.0000       0.850219        23.1356 
 135   0.0000       0.862092        23.4587 
 136   0.0000       0.867628        23.6094 
 137   0.0000       0.874178        23.7876 
 138   0.0000       0.883705        24.0468 
 139   0.0000       0.891004        24.2455 
 140   0.0000       0.896719        24.4010 
 141   0.0000       0.902670        24.5629 
 142   0.0000       0.920299        25.0426 
 143   0.0000       0.925643        25.1880 
 144   0.0000       0.928088        25.2546 
 145   0.0000       0.938467        25.5370 
 146   0.0000       0.943153        25.6645 
 147   0.0000       0.954039        25.9607 
 148   0.0000       0.958988        26.0954 
 149   0.0000       0.972966        26.4758 
 150   0.0000       0.979589        26.6560 
 151   0.0000       0.987058        26.8592 
 152   0.0000       1.001605        27.2551 
 153   0.0000       1.011117        27.5139 
 154   0.0000       1.014156        27.5966 
 155   0.0000       1.016519        27.6609 
 156   0.0000       1.021950        27.8087 
 157   0.0000       1.030851        28.0509 
 158   0.0000       1.039147        28.2766 
 159   0.0000       1.047170        28.4950 
 160   0.0000       1.050717        28.5915 
 161   0.0000       1.057098        28.7651 
 162   0.0000       1.062835        28.9212 
 163   0.0000       1.082768        29.4636 
 164   0.0000       1.084307        29.5055 
 165   0.0000       1.095106        29.7994 
 166   0.0000       1.098073        29.8801 
 167   0.0000       1.114502        30.3271 
 168   0.0000       1.121089        30.5064 
 169   0.0000       1.130089        30.7513 
 170   0.0000       1.136010        30.9124 
 171   0.0000       1.145004        31.1572 
 172   0.0000       1.147176        31.2162 
 173   0.0000       1.152599        31.3638 
 174   0.0000       1.157745        31.5038 
 175   0.0000       1.172249        31.8985 
 176   0.0000       1.178087        32.0574 
 177   0.0000       1.185112        32.2485 
 178   0.0000       1.193810        32.4852 
 179   0.0000       1.201508        32.6947 
 180   0.0000       1.212113        32.9833 
 181   0.0000       1.217824        33.1387 
 182   0.0000       1.230302        33.4782 
 183   0.0000       1.234759        33.5995 
 184   0.0000       1.241347        33.7788 
 185   0.0000       1.251529        34.0558 
 186   0.0000       1.266690        34.4684 
 187   0.0000       1.270994        34.5855 
 188   0.0000       1.282031        34.8858 
 189   0.0000       1.288590        35.0643 
 190   0.0000       1.292476        35.1701 
 191   0.0000       1.306716        35.5576 
 192   0.0000       1.321751        35.9667 
 193   0.0000       1.329015        36.1643 
 194   0.0000       1.333923        36.2979 
 195   0.0000       1.342644        36.5352 
 196   0.0000       1.359803        37.0021 
 197   0.0000       1.368865        37.2487 
 198   0.0000       1.377489        37.4834 
 199   0.0000       1.385581        37.7036 
 200   0.0000       1.400679        38.1144 
 201   0.0000       1.408014        38.3140 
 202   0.0000       1.409408        38.3519 
 203   0.0000       1.418929        38.6110 
 204   0.0000       1.433575        39.0096 
 205   0.0000       1.443923        39.2911 
 206   0.0000       1.453539        39.5528 
 207   0.0000       1.460013        39.7290 
 208   0.0000       1.467838        39.9419 
 209   0.0000       1.493125        40.6300 
 210   0.0000       1.495590        40.6971 
 211   0.0000       1.512157        41.1479 
 212   0.0000       1.530214        41.6392 
 213   0.0000       1.539737        41.8984 
 214   0.0000       1.546976        42.0954 
 215   0.0000       1.553626        42.2763 
 216   0.0000       1.567149        42.6443 
 217   0.0000       1.585772        43.1511 
 218   0.0000       1.586107        43.1602 
 219   0.0000       1.594805        43.3968 
 220   0.0000       1.602507        43.6064 
 221   0.0000       1.610437        43.8222 
 222   0.0000       1.621936        44.1351 
 223   0.0000       1.632561        44.4242 
 224   0.0000       1.658133        45.1201 
 225   0.0000       1.665750        45.3274 
 226   0.0000       1.678717        45.6802 
 227   0.0000       1.690824        46.0097 
 228   0.0000       1.703526        46.3553 
 229   0.0000       1.713633        46.6303 
 230   0.0000       1.720740        46.8237 
 231   0.0000       1.729734        47.0685 
 232   0.0000       1.738332        47.3024 
 233   0.0000       1.750279        47.6275 
 234   0.0000       1.779307        48.4174 
 235   0.0000       1.788622        48.6709 
 236   0.0000       1.798556        48.9412 
 237   0.0000       1.803725        49.0818 
 238   0.0000       1.820191        49.5299 
 239   0.0000       1.821246        49.5586 
 240   0.0000       1.850778        50.3622 
 241   0.0000       1.861770        50.6613 
 242   0.0000       1.870876        50.9091 
 243   0.0000       1.880719        51.1770 
 244   0.0000       1.901390        51.7395 
 245   0.0000       1.918464        52.2041 
 246   0.0000       1.921875        52.2969 
 247   0.0000       1.926360        52.4189 
 248   0.0000       1.937770        52.7294 
 249   0.0000       1.952255        53.1236 
 250   0.0000       1.985640        54.0320 
 251   0.0000       1.988958        54.1223 
 252   0.0000       1.997113        54.3442 
 253   0.0000       2.012887        54.7734 
 254   0.0000       2.028486        55.1979 
 255   0.0000       2.043528        55.6072 
 256   0.0000       2.062650        56.1276 
 257   0.0000       2.078756        56.5658 
 258   0.0000       2.093669        56.9716 
 259   0.0000       2.128491        57.9192 
 260   0.0000       2.146669        58.4138 
 261   0.0000       2.161507        58.8176 
 262   0.0000       2.181741        59.3682 
 263   0.0000       2.192585        59.6633 
 264   0.0000       2.210809        60.1592 
 265   0.0000       2.235108        60.8204 
 266   0.0000       2.246891        61.1410 
 267   0.0000       2.299671        62.5772 
 268   0.0000       2.320457        63.1429 
 269   0.0000       2.336457        63.5782 
 270   0.0000       2.345701        63.8298 
 271   0.0000       2.379504        64.7496 
 272   0.0000       2.384689        64.8907 
 273   0.0000       2.411428        65.6183 
 274   0.0000       2.420942        65.8772 
 275   0.0000       2.437171        66.3188 
 276   0.0000       2.453187        66.7546 
 277   0.0000       2.467367        67.1405 
 278   0.0000       2.484602        67.6095 
 279   0.0000       2.487606        67.6912 
 280   0.0000       2.499092        68.0038 
 281   0.0000       2.514222        68.4155 
 282   0.0000       2.523959        68.6804 
 283   0.0000       2.531135        68.8757 
 284   0.0000       2.544807        69.2477 
 285   0.0000       2.555011        69.5254 
 286   0.0000       2.562385        69.7260 
 287   0.0000       2.570540        69.9479 
 288   0.0000       2.583671        70.3053 
 289   0.0000       2.597101        70.6707 
 290   0.0000       2.624731        71.4226 
 291   0.0000       2.632630        71.6375 
 292   0.0000       2.640901        71.8626 
 293   0.0000       2.654833        72.2417 
 294   0.0000       2.666100        72.5483 
 295   0.0000       2.680516        72.9405 
 296   0.0000       2.692867        73.2766 
 297   0.0000       2.699770        73.4645 
 298   0.0000       2.702378        73.5354 
 299   0.0000       2.723589        74.1126 
 300   0.0000       2.732234        74.3479 
 301   0.0000       2.739968        74.5583 
 302   0.0000       2.745290        74.7031 
 303   0.0000       2.760605        75.1199 
 304   0.0000       2.767280        75.3015 
 305   0.0000       2.781365        75.6848 
 306   0.0000       2.795103        76.0586 
 307   0.0000       2.799748        76.1850 
 308   0.0000       2.810091        76.4665 
 309   0.0000       2.811629        76.5083 
 310   0.0000       2.836994        77.1985 
 311   0.0000       2.847805        77.4927 
 312   0.0000       2.856291        77.7236 
 313   0.0000       2.864510        77.9473 
 314   0.0000       2.881505        78.4097 
 315   0.0000       2.891090        78.6706 
 316   0.0000       2.909843        79.1809 
 317   0.0000       2.922387        79.5222 
 318   0.0000       2.928119        79.6782 
 319   0.0000       2.944658        80.1282 
 320   0.0000       2.952897        80.3524 
 321   0.0000       2.962828        80.6226 
 322   0.0000       2.971251        80.8518 
 323   0.0000       2.982948        81.1701 
 324   0.0000       2.988589        81.3236 
 325   0.0000       3.013762        82.0086 
 326   0.0000       3.021469        82.2183 
 327   0.0000       3.027365        82.3788 
 328   0.0000       3.032550        82.5199 
 329   0.0000       3.057783        83.2065 
 330   0.0000       3.066558        83.4453 
 331   0.0000       3.084214        83.9257 
 332   0.0000       3.109512        84.6141 
 333   0.0000       3.126600        85.0791 
 334   0.0000       3.127599        85.1063 
 335   0.0000       3.138866        85.4129 
 336   0.0000       3.153262        85.8046 
 337   0.0000       3.170178        86.2649 
 338   0.0000       3.186317        86.7041 
 339   0.0000       3.210294        87.3565 
 340   0.0000       3.229264        87.8727 
 341   0.0000       3.252312        88.4999 
 342   0.0000       3.272318        89.0443 
 343   0.0000       3.277413        89.1829 
 344   0.0000       3.288651        89.4887 
 345   0.0000       3.295610        89.6781 
 346   0.0000       3.339991        90.8858 
 347   0.0000       3.428536        93.2952 
 348   0.0000       3.898835       106.0927 
 349   0.0000       3.929097       106.9162 
 350   0.0000       3.962703       107.8306 
 351   0.0000       3.993490       108.6684 
 352   0.0000       4.043229       110.0219 
 353   0.0000       4.055226       110.3483 
 354   0.0000       4.090667       111.3127 
 355   0.0000       4.121046       112.1394 
 356   0.0000       4.139460       112.6404 
 357   0.0000       4.145800       112.8129 
 358   0.0000       4.164750       113.3286 
 359   0.0000       4.171906       113.5233 
 360   0.0000       4.193702       114.1164 
 361   0.0000       4.207405       114.4893 
 362   0.0000       4.217948       114.7762 
 363   0.0000       4.219935       114.8303 
 364   0.0000       4.236739       115.2875 
 365   0.0000       4.256213       115.8175 
 366   0.0000       4.272398       116.2579 
 367   0.0000       4.300764       117.0297 
 368   0.0000       4.325230       117.6955 
 369   0.0000       4.334571       117.9497 
 370   0.0000       4.335890       117.9856 
 371   0.0000       4.353246       118.4579 
 372   0.0000       4.354980       118.5050 
 373   0.0000       4.360070       118.6435 
 374   0.0000       4.389717       119.4503 
 375   0.0000       4.396459       119.6337 
 376   0.0000       4.402040       119.7856 
 377   0.0000       4.419182       120.2521 
 378   0.0000       4.433115       120.6312 
 379   0.0000       4.438385       120.7746 
 380   0.0000       4.451985       121.1447 
 381   0.0000       4.456468       121.2667 
 382   0.0000       4.474422       121.7552 
 383   0.0000       4.491512       122.2203 
 384   0.0000       4.522725       123.0696 
 385   0.0000       4.542894       123.6184 
 386   0.0000       4.551829       123.8616 
 387   0.0000       4.553151       123.8975 
 388   0.0000       4.558912       124.0543 
 389   0.0000       4.575924       124.5172 
 390   0.0000       4.587072       124.8206 
 391   0.0000       4.599836       125.1679 
 392   0.0000       4.620955       125.7426 
 393   0.0000       4.635611       126.1414 
 394   0.0000       4.642991       126.3422 
 395   0.0000       4.650809       126.5549 
 396   0.0000       4.674216       127.1919 
 397   0.0000       4.677303       127.2759 
 398   0.0000       4.699795       127.8879 
 399   0.0000       4.703826       127.9976 
 400   0.0000       4.724480       128.5596 
 401   0.0000       4.737334       128.9094 
 402   0.0000       4.747891       129.1967 
 403   0.0000       4.761673       129.5717 
 404   0.0000       4.775656       129.9522 
 405   0.0000       4.785161       130.2109 
 406   0.0000       4.793789       130.4456 
 407   0.0000       4.812620       130.9580 
 408   0.0000       4.846341       131.8756 
 409   0.0000       4.876204       132.6882 
 410   0.0000       4.891955       133.1169 
 411   0.0000       4.895150       133.2038 
 412   0.0000       4.910917       133.6328 
 413   0.0000       4.944454       134.5454 
 414   0.0000       4.954204       134.8107 
 415   0.0000       4.989547       135.7725 
 416   0.0000       5.009418       136.3132 
 417   0.0000       5.012523       136.3977 
 418   0.0000       5.038252       137.0978 
 419   0.0000       5.059203       137.6679 
 420   0.0000       5.093167       138.5921 
 421   0.0000       5.118651       139.2856 
 422   0.0000       5.133764       139.6968 
 423   0.0000       5.151172       140.1705 
 424   0.0000       5.184969       141.0902 
 425   0.0000       5.191022       141.2549 
 426   0.0000       5.214045       141.8814 
 427   0.0000       5.246857       142.7742 
 428   0.0000       5.256753       143.0435 
 429   0.0000       5.264390       143.2513 
 430   0.0000       5.292940       144.0282 
 431   0.0000       5.304144       144.3331 
 432   0.0000       5.311770       144.5406 
 433   0.0000       5.325028       144.9014 
 434   0.0000       5.346236       145.4785 
 435   0.0000       5.349182       145.5587 
 436   0.0000       5.360305       145.8613 
 437   0.0000       5.375628       146.2783 
 438   0.0000       5.391856       146.7199 
 439   0.0000       5.400470       146.9543 
 440   0.0000       5.406292       147.1127 
 441   0.0000       5.423849       147.5904 
 442   0.0000       5.438350       147.9850 
 443   0.0000       5.453794       148.4053 
 444   0.0000       5.483099       149.2027 
 445   0.0000       5.486254       149.2886 
 446   0.0000       5.504265       149.7787 
 447   0.0000       5.529579       150.4675 
 448   0.0000       5.553238       151.1113 
 449   0.0000       5.604156       152.4968 
 450   0.0000       5.659486       154.0024 
 451   0.0000       5.691036       154.8610 
 452   0.0000       5.696828       155.0186 
 453   0.0000       5.747548       156.3987 
 454   0.0000       5.802905       157.9051 
 455   0.0000       5.836517       158.8197 
 456   0.0000       5.862736       159.5332 
 457   0.0000       5.877119       159.9245 
 458   0.0000       5.909331       160.8011 
 459   0.0000       5.957138       162.1020 
 460   0.0000       5.973038       162.5346 
 461   0.0000       5.993860       163.1012 
 462   0.0000       6.377349       173.5365 
 463   0.0000       6.406580       174.3319 
 464   0.0000       6.462624       175.8569 
 465   0.0000       6.512939       177.2261 
 466   0.0000       6.530144       177.6942 
 467   0.0000       6.580556       179.0660 
 468   0.0000       6.605045       179.7324 
 469   0.0000       6.620272       180.1468 
 470   0.0000       6.645764       180.8404 
 471   0.0000       6.660136       181.2315 
 472   0.0000       6.669456       181.4851 
 473   0.0000       6.740435       183.4166 
 474   0.0000       6.879539       187.2018 
 475   0.0000       6.892042       187.5420 
 476   0.0000       6.917778       188.2423 
 477   0.0000       6.923880       188.4084 
 478   0.0000       6.958646       189.3544 
 479   0.0000       6.986141       190.1026 
 480   0.0000       7.007312       190.6787 
 481   0.0000       7.028316       191.2502 
 482   0.0000       7.046806       191.7533 
 483   0.0000       7.088209       192.8800 
 484   0.0000       7.109802       193.4675 
 485   0.0000       7.128069       193.9646 
 486   0.0000       7.178287       195.3311 
 487   0.0000       7.197600       195.8567 
 488   0.0000       7.230411       196.7495 
 489   0.0000       7.231865       196.7891 
 490   0.0000       7.260733       197.5746 
 491   0.0000       7.265848       197.7138 
 492   0.0000       7.293852       198.4758 
 493   0.0000       7.314167       199.0286 
 494   0.0000       7.342184       199.7910 
 495   0.0000       7.364550       200.3996 
 496   0.0000       7.374722       200.6764 
 497   0.0000       7.389978       201.0915 
 498   0.0000       7.400592       201.3803 
 499   0.0000       7.408782       201.6032 
 500   0.0000       7.426318       202.0804 
 501   0.0000       7.448060       202.6720 
 502   0.0000       7.459457       202.9821 
 503   0.0000       7.462940       203.0769 
 504   0.0000       7.483099       203.6255 
 505   0.0000       7.488193       203.7641 
 506   0.0000       7.500693       204.1042 
 507   0.0000       7.516637       204.5381 
 508   0.0000       7.523247       204.7180 
 509   0.0000       7.528403       204.8583 
 510   0.0000       7.548060       205.3931 
 511   0.0000       7.562142       205.7763 
 512   0.0000       7.572350       206.0541 
 513   0.0000       7.576730       206.1733 
 514   0.0000       7.590356       206.5441 
 515   0.0000       7.615248       207.2214 
 516   0.0000       7.636884       207.8102 
 517   0.0000       7.640349       207.9045 
 518   0.0000       7.676857       208.8979 
 519   0.0000       7.692913       209.3348 
 520   0.0000       7.736729       210.5271 
 521   0.0000       7.795233       212.1191 
 522   0.0000       7.842694       213.4105 
 523   0.0000       7.854911       213.7430 
 524   0.0000       7.895911       214.8587 
 525   0.0000       7.938354       216.0136 
 526   0.0000       7.966804       216.7878 
 527   0.0000       8.008652       217.9265 
 528   0.0000       8.032021       218.5624 
 529   0.0000       8.043379       218.8715 
 530   0.0000       8.061633       219.3682 
 531   0.0000       8.079314       219.8493 
 532   0.0000       8.092858       220.2179 
 533   0.0000       8.112098       220.7414 
 534   0.0000       8.121181       220.9886 
 535   0.0000       8.135449       221.3768 
 536   0.0000       8.164025       222.1544 
 537   0.0000       8.185254       222.7321 
 538   0.0000       8.206268       223.3039 
 539   0.0000       8.284908       225.4438 
 540   0.0000       8.947406       243.4713 
 541   0.0000       8.956206       243.7108 
 542   0.0000       8.962171       243.8731 
 543   0.0000       8.975307       244.2305 
 544   0.0000       8.996139       244.7974 
 545   0.0000       9.026751       245.6304 
 546   0.0000      16.380038       445.7235 
 547   0.0000      16.621947       452.3062 
 548   0.0000      16.855590       458.6639 
 549   0.0000      17.313765       471.1315 
 550   0.0000      17.463173       475.1971 
 551   0.0000      17.689330       481.3511 

                    ********************************
                    * MULLIKEN POPULATION ANALYSIS *
                    ********************************

-----------------------
MULLIKEN ATOMIC CHARGES
-----------------------
   0 O :   -0.587781
   1 H :    0.290911
   2 H :    0.357611
   3 O :   -0.630510
   4 H :    0.312305
   5 H :    0.363810
   6 O :   -0.584878
   7 H :    0.157595
   8 H :    0.394369
   9 O :   -0.610132
  10 H :    0.289847
  11 H :    0.351153
  12 O :   -0.581504
  13 H :    0.374042
  14 H :    0.153908
  15 O :   -0.570713
  16 H :    0.155378
  17 H :    0.364589
Sum of atomic charges:    0.0000000

--------------------------------
MULLIKEN REDUCED ORBITAL CHARGES
--------------------------------
  0 O s       :     3.932845  s :     3.932845
      pz      :     1.409629  p :     4.638237
      px      :     1.812439
      py      :     1.416170
      dz2     :     0.008724  d :     0.016354
      dxz     :    -0.000272
      dyz     :     0.000243
      dx2y2   :     0.006160
      dxy     :     0.001499
      f0      :     0.000225  f :     0.000345
      f+1     :     0.000041
      f-1     :    -0.000049
      f+2     :    -0.000153
      f-2     :     0.000011
      f+3     :     0.000015
      f-3     :     0.000255
  1 H s       :     0.578933  s :     0.578933
      pz      :     0.034924  p :     0.113083
      px      :     0.046517
      py      :     0.031642
      dz2     :     0.000536  d :     0.017074
      dxz     :     0.008688
      dyz     :     0.005749
      dx2y2   :     0.001718
      dxy     :     0.000382
  2 H s       :     0.525801  s :     0.525801
      pz      :     0.029811  p :     0.086760
      px      :     0.048492
      py      :     0.008457
      dz2     :     0.000023  d :     0.029828
      dxz     :     0.000792
      dyz     :     0.011042
      dx2y2   :    -0.001344
      dxy     :     0.019314
  3 O s       :     3.966490  s :     3.966490
      pz      :     1.353586  p :     4.646644
      px      :     1.472605
      py      :     1.820453
      dz2     :     0.003363  d :     0.016883
      dxz     :     0.005966
      dyz     :     0.001341
      dx2y2   :     0.004573
      dxy     :     0.001640
      f0      :     0.000002  f :     0.000493
      f+1     :     0.000065
      f-1     :     0.000167
      f+2     :     0.000095
      f-2     :     0.000036
      f+3     :     0.000147
      f-3     :    -0.000019
  4 H s       :     0.552047  s :     0.552047
      pz      :     0.045529  p :     0.113640
      px      :     0.033156
      py      :     0.034956
      dz2     :     0.002996  d :     0.022008
      dxz     :     0.004194
      dyz     :     0.010505
      dx2y2   :     0.002605
      dxy     :     0.001708
  5 H s       :     0.518224  s :     0.518224
      pz      :     0.044023  p :     0.090199
      px      :     0.001658
      py      :     0.044519
      dz2     :     0.004941  d :     0.027766
      dxz     :     0.004692
      dyz     :     0.004658
      dx2y2   :     0.001532
      dxy     :     0.011943
  6 O s       :     3.958100  s :     3.958100
      pz      :     1.249946  p :     4.616923
      px      :     1.507891
      py      :     1.859086
      dz2     :    -0.002109  d :     0.009422
      dxz     :     0.004589
      dyz     :    -0.000545
      dx2y2   :     0.006911
      dxy     :     0.000576
      f0      :     0.000031  f :     0.000433
      f+1     :    -0.000036
      f-1     :     0.000021
      f+2     :     0.000103
      f-2     :    -0.000042
      f+3     :     0.000303
      f-3     :     0.000053
  7 H s       :     0.725777  s :     0.725777
      pz      :     0.013817  p :     0.099296
      px      :     0.027305
      py      :     0.058174
      dz2     :     0.001523  d :     0.017331
      dxz     :     0.006240
      dyz     :     0.009554
      dx2y2   :    -0.000003
      dxy     :     0.000017
  8 H s       :     0.516076  s :     0.516076
      pz      :     0.012715  p :     0.043365
      px      :    -0.017709
      py      :     0.048359
      dz2     :     0.009880  d :     0.046190
      dxz     :     0.013421
      dyz     :     0.006196
      dx2y2   :    -0.001841
      dxy     :     0.018536
  9 O s       :     3.962067  s :     3.962067
      pz      :     1.509799  p :     4.633780
      px      :     1.825868
      py      :     1.298112
      dz2     :     0.003001  d :     0.013836
      dxz     :     0.000636
      dyz     :     0.008520
      dx2y2   :     0.000221
      dxy     :     0.001458
      f0      :    -0.000040  f :     0.000451
      f+1     :     0.000012
      f-1     :     0.000098
      f+2     :     0.000020
      f-2     :     0.000077
      f+3     :     0.000069
      f-3     :     0.000215
 10 H s       :     0.580625  s :     0.580625
      pz      :     0.024792  p :     0.112234
      px      :     0.052772
      py      :     0.034669
      dz2     :     0.002933  d :     0.017294
      dxz     :     0.002238
      dyz     :     0.001497
      dx2y2   :     0.001511
      dxy     :     0.009116
 11 H s       :     0.525196  s :     0.525196
      pz      :     0.017821  p :     0.104576
      px      :     0.040791
      py      :     0.045964
      dz2     :     0.004225  d :     0.019075
      dxz     :     0.007681
      dyz     :    -0.001578
      dx2y2   :     0.004295
      dxy     :     0.004452
 12 O s       :     3.962100  s :     3.962100
      pz      :     1.513930  p :     4.612265
      px      :     1.553049
      py      :     1.545287
      dz2     :     0.000346  d :     0.006935
      dxz     :     0.005172
      dyz     :    -0.005103
      dx2y2   :     0.005546
      dxy     :     0.000974
      f0      :     0.000153  f :     0.000204
      f+1     :    -0.000051
      f-1     :    -0.000006
      f+2     :     0.000179
      f-2     :    -0.000010
      f+3     :    -0.000015
      f-3     :    -0.000045
 13 H s       :     0.503331  s :     0.503331
      pz      :     0.030683  p :     0.067130
      px      :    -0.006969
      py      :     0.043416
      dz2     :     0.011447  d :     0.055497
      dxz     :     0.016580
      dyz     :     0.007078
      dx2y2   :     0.001441
      dxy     :     0.018950
 14 H s       :     0.726731  s :     0.726731
[...]
      dxy     :     0.006507
      f0      :     0.000582  f :     0.004530
      f+1     :     0.000899
      f-1     :     0.000542
      f+2     :     0.000570
      f-2     :     0.000698
      f+3     :     0.000587
      f-3     :     0.000652
 13 H s       :     0.688560  s :     0.688560
      pz      :     0.023168  p :     0.117690
      px      :     0.059629
      py      :     0.034893
      dz2     :     0.005098  d :     0.016821
      dxz     :     0.004474
      dyz     :     0.001565
      dx2y2   :     0.003511
      dxy     :     0.002173
 14 H s       :     0.591615  s :     0.591615
      pz      :     0.031449  p :     0.091198
      px      :     0.059521
      py      :     0.000227
      dz2     :     0.003664  d :     0.044358
      dxz     :     0.000700
      dyz     :     0.010257
      dx2y2   :     0.006285
      dxy     :     0.023451
 15 O s       :     3.866382  s :     3.866382
      pz      :     1.781387  p :     4.535487
      px      :     1.262200
      py      :     1.491901
      dz2     :     0.008395  d :     0.044184
      dxz     :     0.008626
      dyz     :     0.007435
      dx2y2   :     0.004343
      dxy     :     0.015385
      f0      :     0.000804  f :     0.004674
      f+1     :     0.000928
      f-1     :     0.000679
      f+2     :     0.000524
      f-2     :     0.000728
      f+3     :     0.000749
      f-3     :     0.000262
 16 H s       :     0.584494  s :     0.584494
      pz      :     0.053201  p :     0.089711
      px      :     0.007296
      py      :     0.029214
      dz2     :     0.006266  d :     0.048736
      dxz     :     0.015573
      dyz     :     0.003906
      dx2y2   :     0.014803
      dxy     :     0.008189
 17 H s       :     0.697558  s :     0.697558
      pz      :     0.055288  p :     0.115697
      px      :     0.026129
      py      :     0.034280
      dz2     :     0.001092  d :     0.016687
      dxz     :     0.005285
      dyz     :     0.002331
      dx2y2   :     0.006571
      dxy     :     0.001408


                     *******************************
                     * LOEWDIN POPULATION ANALYSIS *
                     *******************************

----------------------
LOEWDIN ATOMIC CHARGES
----------------------
   0 O :    1.112667
   1 H :   -0.443227
   2 H :   -0.671500
   3 O :    1.116380
   4 H :   -0.666608
   5 H :   -0.446513
   6 O :    1.112778
   7 H :   -0.665704
   8 H :   -0.446979
   9 O :    1.112808
  10 H :   -0.446953
  11 H :   -0.666858
  12 O :    1.112088
  13 H :   -0.443844
  14 H :   -0.671417
  15 O :    1.116174
  16 H :   -0.666836
  17 H :   -0.446455

-------------------------------
LOEWDIN REDUCED ORBITAL CHARGES
-------------------------------
  0 O s       :     2.950331  s :     2.950331
      pz      :     1.199609  p :     3.783685
      px      :     1.353402
      py      :     1.230675
      dz2     :     0.048141  d :     0.130453
      dxz     :     0.016459
      dyz     :     0.014209
      dx2y2   :     0.035279
      dxy     :     0.016366
      f0      :     0.007985  f :     0.022863
      f+1     :     0.001422
      f-1     :     0.003591
      f+2     :     0.001457
      f-2     :     0.001609
      f+3     :     0.001082
      f-3     :     0.005717
  1 H s       :     0.567902  s :     0.567902
      pz      :     0.239215  p :     0.534896
      px      :     0.162885
      py      :     0.132796
      dz2     :     0.115739  d :     0.340429
      dxz     :     0.104667
      dyz     :     0.108198
      dx2y2   :     0.007794
      dxy     :     0.004032
  2 H s       :     0.532884  s :     0.532884
      pz      :     0.132790  p :     0.629897
      px      :     0.149517
      py      :     0.347590
      dz2     :     0.056453  d :     0.508720
      dxz     :     0.002693
      dyz     :     0.154776
      dx2y2   :     0.153132
      dxy     :     0.141665
  3 O s       :     2.947895  s :     2.947895
      pz      :     1.336628  p :     3.781864
      px      :     1.168503
      py      :     1.276732
      dz2     :     0.020130  d :     0.131241
      dxz     :     0.025101
      dyz     :     0.013877
      dx2y2   :     0.029421
      dxy     :     0.042711
      f0      :     0.001705  f :     0.022621
      f+1     :     0.002112
      f-1     :     0.002644
      f+2     :     0.002309
      f-2     :     0.004539
      f+3     :     0.001826
      f-3     :     0.007487
  4 H s       :     0.532777  s :     0.532777
      pz      :     0.218737  p :     0.628226
      px      :     0.239159
      py      :     0.170330
      dz2     :     0.100385  d :     0.505605
      dxz     :     0.125720
      dyz     :     0.067887
      dx2y2   :     0.103734
      dxy     :     0.107880
  5 H s       :     0.571379  s :     0.571379
      pz      :     0.163638  p :     0.535640
      px      :     0.191201
      py      :     0.180801
      dz2     :     0.032683  d :     0.339494
      dxz     :     0.076876
      dyz     :     0.038062
      dx2y2   :     0.107751
      dxy     :     0.084121
  6 O s       :     2.950212  s :     2.950212
      pz      :     1.172166  p :     3.783907
      px      :     1.247608
      py      :     1.364133
      dz2     :     0.049620  d :     0.130377
      dxz     :     0.025965
      dyz     :     0.010684
      dx2y2   :     0.023826
      dxy     :     0.020282
      f0      :     0.008925  f :     0.022726
      f+1     :     0.002418
      f-1     :     0.001267
      f+2     :     0.002439
      f-2     :     0.002314
      f+3     :     0.001654
      f-3     :     0.003707
  7 H s       :     0.530283  s :     0.530283
      pz      :     0.141129  p :     0.629187
      px      :     0.313609
      py      :     0.174449
      dz2     :     0.073612  d :     0.506234
      dxz     :     0.129194
      dyz     :     0.025071
      dx2y2   :     0.137946
      dxy     :     0.140411
  8 H s       :     0.570021  s :     0.570021
      pz      :     0.233712  p :     0.536518
      px      :     0.135361
      py      :     0.167444
      dz2     :     0.111689  d :     0.340440
      dxz     :     0.114312
      dyz     :     0.111813
      dx2y2   :     0.001786
      dxy     :     0.000840
  9 O s       :     2.950094  s :     2.950094
      pz      :     1.187863  p :     3.783901
      px      :     1.262119
      py      :     1.333920
      dz2     :     0.036964  d :     0.130482
      dxz     :     0.028163
      dyz     :     0.016219
      dx2y2   :     0.017898
      dxy     :     0.031237
      f0      :     0.004969  f :     0.022715
      f+1     :     0.004422
      f-1     :     0.002363
      f+2     :     0.002036
      f-2     :     0.002767
      f+3     :     0.001124
      f-3     :     0.005034
 10 H s       :     0.570326  s :     0.570326
      pz      :     0.226360  p :     0.536412
      px      :     0.146616
      py      :     0.163436
      dz2     :     0.110139  d :     0.340215
      dxz     :     0.102883
      dyz     :     0.099130
      dx2y2   :     0.012401
      dxy     :     0.015661
 11 H s       :     0.530160  s :     0.530160
      pz      :     0.159740  p :     0.629820
      px      :     0.282285
      py      :     0.187796
      dz2     :     0.085076  d :     0.506877
      dxz     :     0.112740
      dyz     :     0.052929
      dx2y2   :     0.127081
      dxy     :     0.129051
 12 O s       :     2.950812  s :     2.950812
      pz      :     1.266532  p :     3.784062
      px      :     1.324655
      py      :     1.192875
      dz2     :     0.026074  d :     0.130209
      dxz     :     0.021496
      dyz     :     0.026007
      dx2y2   :     0.039294
      dxy     :     0.017338
      f0      :     0.002287  f :     0.022829
      f+1     :     0.003386
      f-1     :     0.004745
      f+2     :     0.002365
      f-2     :     0.003053
      f+3     :     0.001557
      f-3     :     0.005435
 13 H s       :     0.568010  s :     0.568010
      pz      :     0.224815  p :     0.535247
      px      :     0.167999
      py      :     0.142433
      dz2     :     0.110030  d :     0.340588
      dxz     :     0.079260
      dyz     :     0.077384
      dx2y2   :     0.042228
      dxy     :     0.031685
 14 H s       :     0.532836  s :     0.532836
      pz      :     0.149847  p :     0.629908
      px      :     0.143947
      py      :     0.336114
      dz2     :     0.050017  d :     0.508673
      dxz     :     0.005016
      dyz     :     0.169202
      dx2y2   :     0.146340
      dxy     :     0.138098
 15 O s       :     2.948055  s :     2.948055
      pz      :     1.367634  p :     3.781968
      px      :     1.156823
      py      :     1.257511
      dz2     :     0.023175  d :     0.131180
      dxz     :     0.011480
      dyz     :     0.012924
      dx2y2   :     0.028717
      dxy     :     0.054883
      f0      :     0.001891  f :     0.022625
      f+1     :     0.002478
      f-1     :     0.002123
      f+2     :     0.001521
      f-2     :     0.002948
      f+3     :     0.002867
      f-3     :     0.008797
 16 H s       :     0.532742  s :     0.532742
      pz      :     0.165784  p :     0.628252
      px      :     0.272803
      py      :     0.189665
      dz2     :     0.061317  d :     0.505842
      dxz     :     0.111058
      dyz     :     0.045041
      dx2y2   :     0.139630
      dxy     :     0.148796
 17 H s       :     0.571275  s :     0.571275
      pz      :     0.172930  p :     0.535650
      px      :     0.178946
      py      :     0.183774
      dz2     :     0.035661  d :     0.339530
      dxz     :     0.064804
      dyz     :     0.047767
      dx2y2   :     0.109393
      dxy     :     0.081905


                      *****************************
                      * MAYER POPULATION ANALYSIS *
                      *****************************

  NA   - Mulliken gross atomic population
  ZA   - Total nuclear charge
  QA   - Mulliken gross atomic charge
  VA   - Mayer's total valence
  BVA  - Mayer's bonded valence
  FA   - Mayer's free valence

  ATOM       NA         ZA         QA         VA         BVA        FA
  0 O      8.4447     8.0000    -0.4447     2.1841     1.8119     0.3722
  1 H      0.8235     1.0000     0.1765     1.1048     1.0366     0.0682
  2 H      0.7280     1.0000     0.2720     1.0351     0.9755     0.0597
  3 O      8.4511     8.0000    -0.4511     2.1905     1.8201     0.3704
  4 H      0.7228     1.0000     0.2772     1.0327     0.9731     0.0596
  5 H      0.8302     1.0000     0.1698     1.1059     1.0371     0.0688
  6 O      8.4677     8.0000    -0.4677     2.1812     1.8077     0.3735
  7 H      0.7154     1.0000     0.2846     1.0233     0.9643     0.0590
  8 H      0.8157     1.0000     0.1843     1.0974     1.0304     0.0670
  9 O      8.4676     8.0000    -0.4676     2.1836     1.8102     0.3734
 10 H      0.8163     1.0000     0.1837     1.0970     1.0300     0.0670
 11 H      0.7159     1.0000     0.2841     1.0237     0.9647     0.0590
 12 O      8.4472     8.0000    -0.4472     2.1827     1.8104     0.3723
 13 H      0.8231     1.0000     0.1769     1.1044     1.0362     0.0682
 14 H      0.7272     1.0000     0.2728     1.0339     0.9742     0.0597
 15 O      8.4507     8.0000    -0.4507     2.1916     1.8211     0.3705
 16 H      0.7229     1.0000     0.2771     1.0326     0.9731     0.0596
 17 H      0.8299     1.0000     0.1701     1.1061     1.0374     0.0688

  Mayer bond orders larger than 0.100000
B(  0-O ,  1-H ) :   0.9916 B(  0-O ,  2-H ) :   0.8323 B(  0-O , 11-H ) :   0.1145 
B(  2-H ,  3-O ) :   0.1062 B(  3-O ,  4-H ) :   0.8263 B(  3-O ,  5-H ) :   1.0046 
B(  4-H ,  6-O ) :   0.1167 B(  6-O ,  7-H ) :   0.8130 B(  6-O ,  8-H ) :   0.9933 
B(  7-H , 12-O ) :   0.1144 B(  9-O , 10-H ) :   0.9944 B(  9-O , 11-H ) :   0.8137 
B(  9-O , 16-H ) :   0.1161 B( 12-O , 13-H ) :   0.9916 B( 12-O , 14-H ) :   0.8307 
B( 14-H , 15-O ) :   0.1063 B( 15-O , 16-H ) :   0.8267 B( 15-O , 17-H ) :   1.0046 



----------------------------------
MP2 DERIVATIVE INTEGRAL GENERATION
----------------------------------


Input Wavefunction Amplitudes       ... 6h2o.temelso.etal-orca.engrad-mp2.augccpvtz_job8.mp2tsaa.tmp
Input Correlated Electron Density   ... 6h2o.temelso.etal-orca.engrad-mp2.augccpvtz_job8.pmp2re
Input Energy Weighted Density       ... 6h2o.temelso.etal-orca.engrad-mp2.augccpvtz_job8.wmp2.tmp
Input SCF Electron Density          ... 6h2o.temelso.etal-orca.engrad-mp2.augccpvtz_job8.scfp

One-Electron Terms    ...
                        ... One-Electron Terms done
Prescreening matrices              ... done

Batch handling in the gradient evaluation:
Memory available                      ... 8000.0 MB
Memory per occupied orbital in Q2     ...   55.8 MB
Memory per occupied orbital in Q3     ...    0.2 MB
Total memory requirement per |i>      ...   56.0 MB
Max. Number of orbitals possible      ...    142
Number of orbitals treated per batch  ...     24
Number of batches to be done          ...      1
Batch   0: i=    6 ...    29

---------------------------------------
MP2 TOTAL ENERGY:     -458.045971064 Eh
---------------------------------------

The final MP2 gradient
  0:   0.00025552   0.00246956  -0.00345857
  1:  -0.00054254   0.00035087   0.00389201
  2:  -0.00011840  -0.00250057  -0.00007244
  3:   0.00083991   0.00306706   0.00238823
  4:   0.00168932  -0.00097086  -0.00161683
  5:  -0.00293251  -0.00231835  -0.00065059
  6:  -0.00255892  -0.00151167   0.00280933
  7:   0.00220280   0.00082880   0.00069649
  8:   0.00023535   0.00030982  -0.00376750
  9:   0.00328046   0.00065402   0.00258325
 10:  -0.00117208   0.00092807  -0.00358873
 11:  -0.00209728  -0.00120394   0.00064827
 12:  -0.00108893  -0.00129741  -0.00395192
 13:   0.00146072  -0.00143298   0.00326060
 14:   0.00014944   0.00242334   0.00067730
 15:  -0.00031213  -0.00368663   0.00150663
 16:  -0.00206505   0.00135954  -0.00069067
 17:   0.00277431   0.00253133  -0.00066484

-----------------------------------
NORM OF THE MP2 GRADIENT:  0.015155
-----------------------------------

-------------------------   --------------------
FINAL SINGLE POINT ENERGY      -458.045971064168
-------------------------   --------------------


                            ***************************************
                            *     ORCA property calculations      *
                            ***************************************

                                    ---------------------
                                    Active property flags
                                    ---------------------
   (+) Dipole Moment


------------------------------------------------------------------------------
                       ORCA ELECTRIC PROPERTIES CALCULATION
------------------------------------------------------------------------------

Dipole Moment Calculation                       ... on
Quadrupole Moment Calculation                   ... off
Polarizability Calculation                      ... off
GBWName                                         ... 6h2o.temelso.etal-orca.engrad-mp2.augccpvtz_job8.gbw
Electron density file                           ... 6h2o.temelso.etal-orca.engrad-mp2.augccpvtz_job8.scfp
The origin for moment calculation is the CENTER OF MASS  = (-0.000000,  0.000000 -0.000001)

-------------
DIPOLE MOMENT
-------------
                                X             Y             Z
Electronic contribution:      0.00972      -0.01659       0.10175
Nuclear contribution   :     -0.04170       0.06476      -0.39587
                        -----------------------------------------
Total Dipole Moment    :     -0.03198       0.04817      -0.29412
                        -----------------------------------------
Magnitude (a.u.)       :      0.29975
Magnitude (Debye)      :      0.76190



--------------------
Rotational spectrum 
--------------------
 
Rotational constants in cm-1:     0.044543     0.040261     0.022830 
Rotational constants in MHz :  1335.375067  1206.995175   684.433158 

 Dipole components along the rotational axes: 
x,y,z [a.u.] :    -0.004501     0.005605    -0.299663 
x,y,z [Debye]:    -0.011442     0.014248    -0.761684 

 

                         *** MP2 UNRELAXED DENSITY ***

------------------------------------------------------------------------------
                       ORCA ELECTRIC PROPERTIES CALCULATION
------------------------------------------------------------------------------

Dipole Moment Calculation                       ... on
Quadrupole Moment Calculation                   ... off
Polarizability Calculation                      ... off
GBWName                                         ... 6h2o.temelso.etal-orca.engrad-mp2.augccpvtz_job8.gbw
Electron density file                           ... 6h2o.temelso.etal-orca.engrad-mp2.augccpvtz_job8.pmp2ur
The origin for moment calculation is the CENTER OF MASS  = (-0.000000,  0.000000 -0.000001)

-------------
DIPOLE MOMENT
-------------
                                X             Y             Z
Electronic contribution:      0.01053      -0.01773       0.10895
Nuclear contribution   :     -0.04170       0.06476      -0.39587
                        -----------------------------------------
Total Dipole Moment    :     -0.03117       0.04703      -0.28692
                        -----------------------------------------
Magnitude (a.u.)       :      0.29242
Magnitude (Debye)      :      0.74327



--------------------
Rotational spectrum 
--------------------
 
Rotational constants in cm-1:     0.044543     0.040261     0.022830 
Rotational constants in MHz :  1335.375067  1206.995175   684.433158 

 Dipole components along the rotational axes: 
x,y,z [a.u.] :    -0.004395     0.005513    -0.292333 
x,y,z [Debye]:    -0.011170     0.014014    -0.743051 

 

                           *** MP2 RELAXED DENSITY ***

------------------------------------------------------------------------------
                       ORCA ELECTRIC PROPERTIES CALCULATION
------------------------------------------------------------------------------

Dipole Moment Calculation                       ... on
Quadrupole Moment Calculation                   ... off
Polarizability Calculation                      ... off
GBWName                                         ... 6h2o.temelso.etal-orca.engrad-mp2.augccpvtz_job8.gbw
Electron density file                           ... 6h2o.temelso.etal-orca.engrad-mp2.augccpvtz_job8.pmp2re
The origin for moment calculation is the CENTER OF MASS  = (-0.000000,  0.000000 -0.000001)

-------------
DIPOLE MOMENT
-------------
                                X             Y             Z
Electronic contribution:      0.01234      -0.01969       0.12233
Nuclear contribution   :     -0.04170       0.06476      -0.39587
                        -----------------------------------------
Total Dipole Moment    :     -0.02936       0.04507      -0.27354
                        -----------------------------------------
Magnitude (a.u.)       :      0.27878
Magnitude (Debye)      :      0.70859



--------------------
Rotational spectrum 
--------------------
 
Rotational constants in cm-1:     0.044543     0.040261     0.022830 
Rotational constants in MHz :  1335.375067  1206.995175   684.433158 

 Dipole components along the rotational axes: 
x,y,z [a.u.] :    -0.004380     0.005636    -0.278685 
x,y,z [Debye]:    -0.011134     0.014325    -0.708362 

 

Timings for individual modules:

Sum of individual times         ...      889.804 sec (=  14.830 min)
GTO integral calculation        ...        1.224 sec (=   0.020 min)   0.1 %
SCF iterations                  ...      118.793 sec (=   1.980 min)  13.4 %
MP2 module                      ...      769.787 sec (=  12.830 min)  86.5 %



                             ****ORCA TERMINATED NORMALLY****
TOTAL RUN TIME: 0 days 2 hours 13 minutes 28 seconds 918 msec
