
                                 *****************
                                 * O   R   C   A *
                                 *****************

           --- An Ab Initio, DFT and Semiempirical electronic structure package ---

                  #######################################################
                  #                        -***-                        #
                  #          Department of theory and spectroscopy      #
                  #               Directorship: Frank Neese             #
                  #        Max Planck Institute fuer Kohlenforschung    #
                  #                Kaiser Wilhelm Platz 1               #
                  #                 D-45470 Muelheim/Ruhr               #
                  #                      Germany                        #
                  #                                                     #
                  #                  All rights reserved                #
                  #                        -***-                        #
                  #######################################################


                         Program Version 4.2.0 -  RELEASE  -


 With contributions from (in alphabetic order):
   Daniel Aravena         : Magnetic Suceptibility
   Michael Atanasov       : Ab Initio Ligand Field Theory (pilot matlab implementation)
   Alexander A. Auer      : GIAO ZORA, VPT2
   Ute Becker             : Parallelization
   Giovanni Bistoni       : ED, misc. LED, open-shell LED, HFLED
   Martin Brehm           : Molecular dynamics
   Dmytro Bykov           : SCF Hessian
   Vijay G. Chilkuri      : MRCI spin determinant printing, contributions to CSF-ICE
   Dipayan Datta          : RHF DLPNO-CCSD density
   Achintya Kumar Dutta   : EOM-CC, STEOM-CC
   Dmitry Ganyushin       : Spin-Orbit,Spin-Spin,Magnetic field MRCI
   Miquel Garcia          : C-PCM Hessian, Gaussian charge scheme
   Yang Guo               : DLPNO-NEVPT2, CIM, IAO-localization
   Andreas Hansen         : Spin unrestricted coupled pair/coupled cluster methods
   Benjamin Helmich-Paris : CASSCF linear response (MC-RPA)
   Lee Huntington         : MR-EOM, pCC
   Robert Izsak           : Overlap fitted RIJCOSX, COSX-SCS-MP3, EOM
   Christian Kollmar      : KDIIS, OOCD, Brueckner-CCSD(T), CCSD density
   Simone Kossmann        : Meta GGA functionals, TD-DFT gradient, OOMP2, MP2 Hessian
   Martin Krupicka        : AUTO-CI
   Lucas Lang             : DCDCAS
   Dagmar Lenk            : GEPOL surface, SMD
   Dimitrios Liakos       : Extrapolation schemes; Compound Job, initial MDCI parallelization
   Dimitrios Manganas     : Further ROCIS development; embedding schemes
   Dimitrios Pantazis     : SARC Basis sets
   Taras Petrenko         : DFT Hessian,TD-DFT gradient, ASA, ECA, R-Raman, ABS, FL, XAS/XES, NRVS
   Peter Pinski           : DLPNO-MP2, DLPNO-MP2 Gradient
   Christoph Reimann      : Effective Core Potentials
   Marius Retegan         : Local ZFS, SOC
   Christoph Riplinger    : Optimizer, TS searches, QM/MM, DLPNO-CCSD(T), (RO)-DLPNO pert. Triples
   Tobias Risthaus        : Range-separated hybrids, TD-DFT gradient, RPA, STAB
   Michael Roemelt        : Original ROCIS implementation
   Masaaki Saitow         : Open-shell DLPNO-CCSD energy and density
   Barbara Sandhoefer     : DKH picture change effects
   Avijit Sen             : IP-ROCIS
   Kantharuban Sivalingam : CASSCF convergence, NEVPT2, FIC-MRCI
   Bernardo de Souza      : ESD, SOC TD-DFT
   Georgi Stoychev        : AutoAux, RI-MP2 NMR
   Willem Van den Heuvel  : Paramagnetic NMR
   Boris Wezisla          : Elementary symmetry handling
   Frank Wennmohs         : Technical directorship


 We gratefully acknowledge several colleagues who have allowed us to
 interface, adapt or use parts of their codes:
   Stefan Grimme, W. Hujo, H. Kruse,             : VdW corrections, initial TS optimization,
                  C. Bannwarth                     DFT functionals, gCP, sTDA/sTD-DF
   Ed Valeev, F. Pavosevic, A. Kumar             : LibInt (2-el integral package), F12 methods
   Garnet Chan, S. Sharma, J. Yang, R. Olivares  : DMRG
   Ulf Ekstrom                                   : XCFun DFT Library
   Mihaly Kallay                                 : mrcc  (arbitrary order and MRCC methods)
   Andreas Klamt, Michael Diedenhofen            : otool_cosmo (COSMO solvation model)
   Jiri Pittner, Ondrej Demel                    : Mk-CCSD
   Frank Weinhold                                : gennbo (NPA and NBO analysis)
   Christopher J. Cramer and Donald G. Truhlar   : smd solvation model
   Lars Goerigk                                  : TD-DFT with DH, B97 family of functionals
   V. Asgeirsson, H. Jonsson                     : NEB implementation
   FAccTs GmbH                                   : IRC, NEB, NEB-TS, Multilevel, MM, QM/MM, CI optimization
   S Lehtola, MJT Oliveira, MAL Marques          : LibXC Library


 Your calculation uses the libint2 library for the computation of 2-el integrals
 For citations please refer to: http://libint.valeyev.net

 Your ORCA version has been built with support for libXC version: 4.2.3
 For citations please refer to: https://tddft.org/programs/libxc/

 This ORCA versions uses:
   CBLAS   interface :  Fast vector & matrix operations
   LAPACKE interface :  Fast linear algebra routines
   SCALAPACK package :  Parallel linear algebra routines


----- Orbital basis set information -----
Your calculation utilizes the basis: def2-TZVP
   F. Weigend and R. Ahlrichs, Phys. Chem. Chem. Phys. 7, 3297 (2005).

================================================================================
                                        WARNINGS
                       Please study these warnings very carefully!
================================================================================


WARNING: The frozen-core approximation for MP2-gradient calculations is turned on by default.

INFO   : the flag for use of LIBINT has been found!

----- Orbital basis set information -----
Your calculation utilizes the basis: def2-TZVP
   F. Weigend and R. Ahlrichs, Phys. Chem. Chem. Phys. 7, 3297 (2005).

================================================================================
                                        WARNINGS
                       Please study these warnings very carefully!
================================================================================


WARNING: The frozen-core approximation for MP2-gradient calculations is turned on by default.

INFO   : the flag for use of LIBINT has been found!

----- Orbital basis set information -----
Your calculation utilizes the basis: def2-TZVP
   F. Weigend and R. Ahlrichs, Phys. Chem. Chem. Phys. 7, 3297 (2005).

================================================================================
                                        WARNINGS
                       Please study these warnings very carefully!
================================================================================


WARNING: The frozen-core approximation for MP2-gradient calculations is turned on by default.

INFO   : the flag for use of LIBINT has been found!

----- Orbital basis set information -----
Your calculation utilizes the basis: def2-TZVP
   F. Weigend and R. Ahlrichs, Phys. Chem. Chem. Phys. 7, 3297 (2005).

================================================================================
                                        WARNINGS
                       Please study these warnings very carefully!
================================================================================


WARNING: The frozen-core approximation for MP2-gradient calculations is turned on by default.

INFO   : the flag for use of LIBINT has been found!

----- Orbital basis set information -----
Your calculation utilizes the basis: def2-TZVP
   F. Weigend and R. Ahlrichs, Phys. Chem. Chem. Phys. 7, 3297 (2005).

================================================================================
                                        WARNINGS
                       Please study these warnings very carefully!
================================================================================


WARNING: The frozen-core approximation for MP2-gradient calculations is turned on by default.

INFO   : the flag for use of LIBINT has been found!

----- Orbital basis set information -----
Your calculation utilizes the basis: def2-TZVP
   F. Weigend and R. Ahlrichs, Phys. Chem. Chem. Phys. 7, 3297 (2005).

================================================================================
                                        WARNINGS
                       Please study these warnings very carefully!
================================================================================


WARNING: The frozen-core approximation for MP2-gradient calculations is turned on by default.

INFO   : the flag for use of LIBINT has been found!

----- Orbital basis set information -----
Your calculation utilizes the basis: def2-TZVP
   F. Weigend and R. Ahlrichs, Phys. Chem. Chem. Phys. 7, 3297 (2005).

================================================================================
                                        WARNINGS
                       Please study these warnings very carefully!
================================================================================


WARNING: The frozen-core approximation for MP2-gradient calculations is turned on by default.

INFO   : the flag for use of LIBINT has been found!

----- Orbital basis set information -----
Your calculation utilizes the basis: def2-TZVP
   F. Weigend and R. Ahlrichs, Phys. Chem. Chem. Phys. 7, 3297 (2005).

================================================================================
                                        WARNINGS
                       Please study these warnings very carefully!
================================================================================


WARNING: The frozen-core approximation for MP2-gradient calculations is turned on by default.

INFO   : the flag for use of LIBINT has been found!

----- Orbital basis set information -----
Your calculation utilizes the basis: def2-TZVP
   F. Weigend and R. Ahlrichs, Phys. Chem. Chem. Phys. 7, 3297 (2005).

================================================================================
                                        WARNINGS
                       Please study these warnings very carefully!
================================================================================


WARNING: The frozen-core approximation for MP2-gradient calculations is turned on by default.

INFO   : the flag for use of LIBINT has been found!

----- Orbital basis set information -----
Your calculation utilizes the basis: def2-TZVP
   F. Weigend and R. Ahlrichs, Phys. Chem. Chem. Phys. 7, 3297 (2005).

================================================================================
                                        WARNINGS
                       Please study these warnings very carefully!
================================================================================


WARNING: The frozen-core approximation for MP2-gradient calculations is turned on by default.

INFO   : the flag for use of LIBINT has been found!

----- Orbital basis set information -----
Your calculation utilizes the basis: def2-TZVP
   F. Weigend and R. Ahlrichs, Phys. Chem. Chem. Phys. 7, 3297 (2005).

================================================================================
                                        WARNINGS
                       Please study these warnings very carefully!
================================================================================


WARNING: The frozen-core approximation for MP2-gradient calculations is turned on by default.

INFO   : the flag for use of LIBINT has been found!

----- Orbital basis set information -----
Your calculation utilizes the basis: def2-TZVP
   F. Weigend and R. Ahlrichs, Phys. Chem. Chem. Phys. 7, 3297 (2005).

================================================================================
                                        WARNINGS
                       Please study these warnings very carefully!
================================================================================


WARNING: The frozen-core approximation for MP2-gradient calculations is turned on by default.

INFO   : the flag for use of LIBINT has been found!

----- Orbital basis set information -----
Your calculation utilizes the basis: def2-TZVP
   F. Weigend and R. Ahlrichs, Phys. Chem. Chem. Phys. 7, 3297 (2005).

================================================================================
                                        WARNINGS
                       Please study these warnings very carefully!
================================================================================


WARNING: The frozen-core approximation for MP2-gradient calculations is turned on by default.

INFO   : the flag for use of LIBINT has been found!

----- Orbital basis set information -----
Your calculation utilizes the basis: def2-TZVP
   F. Weigend and R. Ahlrichs, Phys. Chem. Chem. Phys. 7, 3297 (2005).

================================================================================
                                        WARNINGS
                       Please study these warnings very carefully!
================================================================================


WARNING: The frozen-core approximation for MP2-gradient calculations is turned on by default.

INFO   : the flag for use of LIBINT has been found!

----- Orbital basis set information -----
Your calculation utilizes the basis: def2-TZVP
   F. Weigend and R. Ahlrichs, Phys. Chem. Chem. Phys. 7, 3297 (2005).

================================================================================
                                        WARNINGS
                       Please study these warnings very carefully!
================================================================================


WARNING: The frozen-core approximation for MP2-gradient calculations is turned on by default.

INFO   : the flag for use of LIBINT has been found!

----- Orbital basis set information -----
Your calculation utilizes the basis: def2-TZVP
   F. Weigend and R. Ahlrichs, Phys. Chem. Chem. Phys. 7, 3297 (2005).

================================================================================
                                        WARNINGS
                       Please study these warnings very carefully!
================================================================================


WARNING: The frozen-core approximation for MP2-gradient calculations is turned on by default.

INFO   : the flag for use of LIBINT has been found!

----- Orbital basis set information -----
Your calculation utilizes the basis: def2-TZVP
   F. Weigend and R. Ahlrichs, Phys. Chem. Chem. Phys. 7, 3297 (2005).

================================================================================
                                        WARNINGS
                       Please study these warnings very carefully!
================================================================================


WARNING: The frozen-core approximation for MP2-gradient calculations is turned on by default.

INFO   : the flag for use of LIBINT has been found!

----- Orbital basis set information -----
Your calculation utilizes the basis: def2-TZVP
   F. Weigend and R. Ahlrichs, Phys. Chem. Chem. Phys. 7, 3297 (2005).

================================================================================
                                        WARNINGS
                       Please study these warnings very carefully!
================================================================================


WARNING: The frozen-core approximation for MP2-gradient calculations is turned on by default.

INFO   : the flag for use of LIBINT has been found!

----- Orbital basis set information -----
Your calculation utilizes the basis: def2-TZVP
   F. Weigend and R. Ahlrichs, Phys. Chem. Chem. Phys. 7, 3297 (2005).

================================================================================
                                        WARNINGS
                       Please study these warnings very carefully!
================================================================================


WARNING: The frozen-core approximation for MP2-gradient calculations is turned on by default.

INFO   : the flag for use of LIBINT has been found!

----- Orbital basis set information -----
Your calculation utilizes the basis: def2-TZVP
   F. Weigend and R. Ahlrichs, Phys. Chem. Chem. Phys. 7, 3297 (2005).

================================================================================
                                        WARNINGS
                       Please study these warnings very carefully!
================================================================================


WARNING: The frozen-core approximation for MP2-gradient calculations is turned on by default.

INFO   : the flag for use of LIBINT has been found!

----- Orbital basis set information -----
Your calculation utilizes the basis: def2-TZVP
   F. Weigend and R. Ahlrichs, Phys. Chem. Chem. Phys. 7, 3297 (2005).

================================================================================
                                        WARNINGS
                       Please study these warnings very carefully!
================================================================================


WARNING: The frozen-core approximation for MP2-gradient calculations is turned on by default.

INFO   : the flag for use of LIBINT has been found!

----- Orbital basis set information -----
Your calculation utilizes the basis: def2-TZVP
   F. Weigend and R. Ahlrichs, Phys. Chem. Chem. Phys. 7, 3297 (2005).

================================================================================
                                        WARNINGS
                       Please study these warnings very carefully!
================================================================================


WARNING: The frozen-core approximation for MP2-gradient calculations is turned on by default.

INFO   : the flag for use of LIBINT has been found!

----- Orbital basis set information -----
Your calculation utilizes the basis: def2-TZVP
   F. Weigend and R. Ahlrichs, Phys. Chem. Chem. Phys. 7, 3297 (2005).

================================================================================
                                        WARNINGS
                       Please study these warnings very carefully!
================================================================================


WARNING: The frozen-core approximation for MP2-gradient calculations is turned on by default.

INFO   : the flag for use of LIBINT has been found!

----- Orbital basis set information -----
Your calculation utilizes the basis: def2-TZVP
   F. Weigend and R. Ahlrichs, Phys. Chem. Chem. Phys. 7, 3297 (2005).

================================================================================
                                        WARNINGS
                       Please study these warnings very carefully!
================================================================================


WARNING: The frozen-core approximation for MP2-gradient calculations is turned on by default.

INFO   : the flag for use of LIBINT has been found!

----- Orbital basis set information -----
Your calculation utilizes the basis: def2-TZVP
   F. Weigend and R. Ahlrichs, Phys. Chem. Chem. Phys. 7, 3297 (2005).

================================================================================
                                        WARNINGS
                       Please study these warnings very carefully!
================================================================================


WARNING: The frozen-core approximation for MP2-gradient calculations is turned on by default.

INFO   : the flag for use of LIBINT has been found!

----- Orbital basis set information -----
Your calculation utilizes the basis: def2-TZVP
   F. Weigend and R. Ahlrichs, Phys. Chem. Chem. Phys. 7, 3297 (2005).

================================================================================
                                        WARNINGS
                       Please study these warnings very carefully!
================================================================================


WARNING: The frozen-core approximation for MP2-gradient calculations is turned on by default.

INFO   : the flag for use of LIBINT has been found!

----- Orbital basis set information -----
Your calculation utilizes the basis: def2-TZVP
   F. Weigend and R. Ahlrichs, Phys. Chem. Chem. Phys. 7, 3297 (2005).

================================================================================
                                        WARNINGS
                       Please study these warnings very carefully!
================================================================================


WARNING: The frozen-core approximation for MP2-gradient calculations is turned on by default.

INFO   : the flag for use of LIBINT has been found!

================================================================================
                                       INPUT FILE
================================================================================
NAME = 140h2o.sphere.gfn2.md.500k.prod1.3h2o.dset.1h2o.dset-orca.engrad-mp2.def2tzvp-14000.to.14026.inp
|  1> # 140h2o.sphere.gfn2.md.500k.prod1.3h2o.dset.1h2o.dset-orca.engrad-mp2.def2tzvp-14000.to.14026
|  2> ! MP2 def2-TZVP EnGrad TightSCF FrozenCore
|  3> 
|  4> %pal
|  5>     nprocs 12
|  6> end
|  7> 
|  8> %maxcore 8000
|  9> 
| 10> %scf
| 11>     ConvForced true
| 12> end
| 13> 
| 14> *xyz 0 1
| 15> O  -0.039786509   0.059782429   0.027779676
| 16> H  -0.143492223  -0.886150005   0.122829831
| 17> H   0.775086074  -0.062870548  -0.563820327
| 18> *
| 19> 
| 20> 
| 21> $new_job
| 22> 
| 23> # 140h2o.sphere.gfn2.md.500k.prod1.3h2o.dset.1h2o.dset-orca.engrad-mp2.def2tzvp-14000.to.14026
| 24> ! MP2 def2-TZVP EnGrad TightSCF FrozenCore
| 25> 
| 26> %pal
| 27>     nprocs 12
| 28> end
| 29> 
| 30> %maxcore 8000
| 31> 
| 32> %scf
| 33>     ConvForced true
| 34> end
| 35> 
| 36> *xyz 0 1
| 37> O   0.042491252   0.012667192  -0.043127013
| 38> H   0.180584058   0.042328852   0.924281756
| 39> H  -0.855114559  -0.243415127  -0.239658827
| 40> *
| 41> 
| 42> 
| 43> $new_job
| 44> 
| 45> # 140h2o.sphere.gfn2.md.500k.prod1.3h2o.dset.1h2o.dset-orca.engrad-mp2.def2tzvp-14000.to.14026
| 46> ! MP2 def2-TZVP EnGrad TightSCF FrozenCore
| 47> 
| 48> %pal
| 49>     nprocs 12
| 50> end
| 51> 
| 52> %maxcore 8000
| 53> 
| 54> %scf
| 55>     ConvForced true
| 56> end
| 57> 
| 58> *xyz 0 1
| 59> O   0.048540635   0.007365656   0.042122295
| 60> H  -0.074252630  -0.660254446  -0.621071367
| 61> H  -0.696309248   0.543327804  -0.047602092
| 62> *
| 63> 
| 64> 
| 65> $new_job
| 66> 
| 67> # 140h2o.sphere.gfn2.md.500k.prod1.3h2o.dset.1h2o.dset-orca.engrad-mp2.def2tzvp-14000.to.14026
| 68> ! MP2 def2-TZVP EnGrad TightSCF FrozenCore
| 69> 
| 70> %pal
| 71>     nprocs 12
| 72> end
| 73> 
| 74> %maxcore 8000
| 75> 
| 76> %scf
| 77>     ConvForced true
| 78> end
| 79> 
| 80> *xyz 0 1
| 81> O  -0.045031626   0.032691358  -0.046182882
| 82> H   0.084046964   0.049835265   0.977098524
| 83> H   0.630810880  -0.568796625  -0.243964976
| 84> *
| 85> 
| 86> 
| 87> $new_job
| 88> 
| 89> # 140h2o.sphere.gfn2.md.500k.prod1.3h2o.dset.1h2o.dset-orca.engrad-mp2.def2tzvp-14000.to.14026
| 90> ! MP2 def2-TZVP EnGrad TightSCF FrozenCore
| 91> 
| 92> %pal
| 93>     nprocs 12
| 94> end
| 95> 
| 96> %maxcore 8000
| 97> 
| 98> %scf
| 99>     ConvForced true
|100> end
|101> 
|102> *xyz 0 1
|103> O   0.004847318  -0.071137929   0.001417024
|104> H   0.568051977   0.601788238  -0.401070979
|105> H  -0.645001081   0.527496036   0.378576325
|106> *
|107> 
|108> 
|109> $new_job
|110> 
|111> # 140h2o.sphere.gfn2.md.500k.prod1.3h2o.dset.1h2o.dset-orca.engrad-mp2.def2tzvp-14000.to.14026
|112> ! MP2 def2-TZVP EnGrad TightSCF FrozenCore
|113> 
|114> %pal
|115>     nprocs 12
|116> end
|117> 
|118> %maxcore 8000
|119> 
|120> %scf
|121>     ConvForced true
|122> end
|123> 
|124> *xyz 0 1
|125> O  -0.058525568   0.029332514   0.007145641
|126> H   0.673624789   0.216054707  -0.677527862
|127> H   0.255443629  -0.681695853   0.564093857
|128> *
|129> 
|130> 
|131> $new_job
|132> 
|133> # 140h2o.sphere.gfn2.md.500k.prod1.3h2o.dset.1h2o.dset-orca.engrad-mp2.def2tzvp-14000.to.14026
|134> ! MP2 def2-TZVP EnGrad TightSCF FrozenCore
|135> 
|136> %pal
|137>     nprocs 12
|138> end
|139> 
|140> %maxcore 8000
|141> 
|142> %scf
|143>     ConvForced true
|144> end
|145> 
|146> *xyz 0 1
|147> O   0.017867216   0.004343302  -0.068716854
|148> H   0.343773018   0.551723276   0.630829553
|149> H  -0.627407454  -0.620671347   0.460021182
|150> *
|151> 
|152> 
|153> $new_job
|154> 
|155> # 140h2o.sphere.gfn2.md.500k.prod1.3h2o.dset.1h2o.dset-orca.engrad-mp2.def2tzvp-14000.to.14026
|156> ! MP2 def2-TZVP EnGrad TightSCF FrozenCore
|157> 
|158> %pal
|159>     nprocs 12
|160> end
|161> 
|162> %maxcore 8000
|163> 
|164> %scf
|165>     ConvForced true
|166> end
|167> 
|168> *xyz 0 1
|169> O  -0.033473963  -0.042443968  -0.049850047
|170> H   0.264197115   0.984090603   0.021099238
|171> H   0.267187762  -0.310310723   0.770248994
|172> *
|173> 
|174> 
|175> $new_job
|176> 
|177> # 140h2o.sphere.gfn2.md.500k.prod1.3h2o.dset.1h2o.dset-orca.engrad-mp2.def2tzvp-14000.to.14026
|178> ! MP2 def2-TZVP EnGrad TightSCF FrozenCore
|179> 
|180> %pal
|181>     nprocs 12
|182> end
|183> 
|184> %maxcore 8000
|185> 
|186> %scf
|187>     ConvForced true
|188> end
|189> 
|190> *xyz 0 1
|191> O  -0.009456994   0.020171223  -0.062454221
|192> H  -0.222064999   0.479447621   0.756467761
|193> H   0.372190737  -0.799657186   0.234966349
|194> *
|195> 
|196> 
|197> $new_job
|198> 
|199> # 140h2o.sphere.gfn2.md.500k.prod1.3h2o.dset.1h2o.dset-orca.engrad-mp2.def2tzvp-14000.to.14026
|200> ! MP2 def2-TZVP EnGrad TightSCF FrozenCore
|201> 
|202> %pal
|203>     nprocs 12
|204> end
|205> 
|206> %maxcore 8000
|207> 
|208> %scf
|209>     ConvForced true
|210> end
|211> 
|212> *xyz 0 1
|213> O  -0.024032677   0.004809116  -0.054653029
|214> H   0.692287083  -0.551688036   0.185083797
|215> H  -0.310778590   0.475345379   0.682509722
|216> *
|217> 
|218> 
|219> $new_job
|220> 
|221> # 140h2o.sphere.gfn2.md.500k.prod1.3h2o.dset.1h2o.dset-orca.engrad-mp2.def2tzvp-14000.to.14026
|222> ! MP2 def2-TZVP EnGrad TightSCF FrozenCore
|223> 
|224> %pal
|225>     nprocs 12
|226> end
|227> 
|228> %maxcore 8000
|229> 
|230> %scf
|231>     ConvForced true
|232> end
|233> 
|234> *xyz 0 1
|235> O  -0.057769938  -0.015261920  -0.009565058
|236> H   0.207355953   0.818729858  -0.139225706
|237> H   0.709717171  -0.576453386   0.291066924
|238> *
|239> 
|240> 
|241> $new_job
|242> 
|243> # 140h2o.sphere.gfn2.md.500k.prod1.3h2o.dset.1h2o.dset-orca.engrad-mp2.def2tzvp-14000.to.14026
|244> ! MP2 def2-TZVP EnGrad TightSCF FrozenCore
|245> 
|246> %pal
|247>     nprocs 12
|248> end
|249> 
|250> %maxcore 8000
|251> 
|252> %scf
|253>     ConvForced true
|254> end
|255> 
|256> *xyz 0 1
|257> O   0.041927672  -0.019006900  -0.054284953
|258> H  -0.159005099   0.895129642   0.228456052
|259> H  -0.506578802  -0.593403218   0.633294411
|260> *
|261> 
|262> 
|263> $new_job
|264> 
|265> # 140h2o.sphere.gfn2.md.500k.prod1.3h2o.dset.1h2o.dset-orca.engrad-mp2.def2tzvp-14000.to.14026
|266> ! MP2 def2-TZVP EnGrad TightSCF FrozenCore
|267> 
|268> %pal
|269>     nprocs 12
|270> end
|271> 
|272> %maxcore 8000
|273> 
|274> %scf
|275>     ConvForced true
|276> end
|277> 
|278> *xyz 0 1
|279> O  -0.037815196   0.033235339   0.043479685
|280> H   0.433734863   0.374649116  -0.676664189
|281> H   0.166565242  -0.902245937  -0.013557254
|282> *
|283> 
|284> 
|285> $new_job
|286> 
|287> # 140h2o.sphere.gfn2.md.500k.prod1.3h2o.dset.1h2o.dset-orca.engrad-mp2.def2tzvp-14000.to.14026
|288> ! MP2 def2-TZVP EnGrad TightSCF FrozenCore
|289> 
|290> %pal
|291>     nprocs 12
|292> end
|293> 
|294> %maxcore 8000
|295> 
|296> %scf
|297>     ConvForced true
|298> end
|299> 
|300> *xyz 0 1
|301> O  -0.042472122   0.036366076  -0.022430819
|302> H   0.278104060  -0.867023668  -0.421474436
|303> H   0.396122761   0.289727728   0.777554115
|304> *
|305> 
|306> 
|307> $new_job
|308> 
|309> # 140h2o.sphere.gfn2.md.500k.prod1.3h2o.dset.1h2o.dset-orca.engrad-mp2.def2tzvp-14000.to.14026
|310> ! MP2 def2-TZVP EnGrad TightSCF FrozenCore
|311> 
|312> %pal
|313>     nprocs 12
|314> end
|315> 
|316> %maxcore 8000
|317> 
|318> %scf
|319>     ConvForced true
|320> end
|321> 
|322> *xyz 0 1
|323> O  -0.007826050  -0.063052993  -0.015904234
|324> H  -0.423242742   0.382240100   0.724925770
|325> H   0.547477953   0.618699262  -0.472452837
|326> *
|327> 
|328> 
|329> $new_job
|330> 
|331> # 140h2o.sphere.gfn2.md.500k.prod1.3h2o.dset.1h2o.dset-orca.engrad-mp2.def2tzvp-14000.to.14026
|332> ! MP2 def2-TZVP EnGrad TightSCF FrozenCore
|333> 
|334> %pal
|335>     nprocs 12
|336> end
|337> 
|338> %maxcore 8000
|339> 
|340> %scf
|341>     ConvForced true
|342> end
|343> 
|344> *xyz 0 1
|345> O   0.043166336   0.024275216  -0.038902978
|346> H  -0.278882194   0.477841690   0.699675314
|347> H  -0.406364979  -0.863200390  -0.082107141
|348> *
|349> 
|350> 
|351> $new_job
|352> 
|353> # 140h2o.sphere.gfn2.md.500k.prod1.3h2o.dset.1h2o.dset-orca.engrad-mp2.def2tzvp-14000.to.14026
|354> ! MP2 def2-TZVP EnGrad TightSCF FrozenCore
|355> 
|356> %pal
|357>     nprocs 12
|358> end
|359> 
|360> %maxcore 8000
|361> 
|362> %scf
|363>     ConvForced true
|364> end
|365> 
|366> *xyz 0 1
|367> O  -0.010204604   0.021746599   0.066617774
|368> H  -0.436285957  -0.724594281  -0.519692548
|369> H   0.598279688   0.379376299  -0.537836185
|370> *
|371> 
|372> 
|373> $new_job
|374> 
|375> # 140h2o.sphere.gfn2.md.500k.prod1.3h2o.dset.1h2o.dset-orca.engrad-mp2.def2tzvp-14000.to.14026
|376> ! MP2 def2-TZVP EnGrad TightSCF FrozenCore
|377> 
|378> %pal
|379>     nprocs 12
|380> end
|381> 
|382> %maxcore 8000
|383> 
|384> %scf
|385>     ConvForced true
|386> end
|387> 
|388> *xyz 0 1
|389> O  -0.031178662  -0.052324927  -0.024494877
|390> H   0.731703468  -0.117745365   0.517607508
|391> H  -0.236755510   0.948381250  -0.128761784
|392> *
|393> 
|394> 
|395> $new_job
|396> 
|397> # 140h2o.sphere.gfn2.md.500k.prod1.3h2o.dset.1h2o.dset-orca.engrad-mp2.def2tzvp-14000.to.14026
|398> ! MP2 def2-TZVP EnGrad TightSCF FrozenCore
|399> 
|400> %pal
|401>     nprocs 12
|402> end
|403> 
|404> %maxcore 8000
|405> 
|406> %scf
|407>     ConvForced true
|408> end
|409> 
|410> *xyz 0 1
|411> O   0.037399541  -0.032687170  -0.038109334
|412> H  -0.679300341   0.497298961  -0.323448461
|413> H   0.085598585   0.021595921   0.928417885
|414> *
|415> 
|416> 
|417> $new_job
|418> 
|419> # 140h2o.sphere.gfn2.md.500k.prod1.3h2o.dset.1h2o.dset-orca.engrad-mp2.def2tzvp-14000.to.14026
|420> ! MP2 def2-TZVP EnGrad TightSCF FrozenCore
|421> 
|422> %pal
|423>     nprocs 12
|424> end
|425> 
|426> %maxcore 8000
|427> 
|428> %scf
|429>     ConvForced true
|430> end
|431> 
|432> *xyz 0 1
|433> O   0.057693810   0.025464521   0.012516661
|434> H  -0.730527318   0.501644165   0.099565990
|435> H  -0.185337307  -0.905882578  -0.298262638
|436> *
|437> 
|438> 
|439> $new_job
|440> 
|441> # 140h2o.sphere.gfn2.md.500k.prod1.3h2o.dset.1h2o.dset-orca.engrad-mp2.def2tzvp-14000.to.14026
|442> ! MP2 def2-TZVP EnGrad TightSCF FrozenCore
|443> 
|444> %pal
|445>     nprocs 12
|446> end
|447> 
|448> %maxcore 8000
|449> 
|450> %scf
|451>     ConvForced true
|452> end
|453> 
|454> *xyz 0 1
|455> O   0.060355133  -0.041792484   0.020864200
|456> H  -0.188741378   0.462471594  -0.863683347
|457> H  -0.769370601   0.200966251   0.532473071
|458> *
|459> 
|460> 
|461> $new_job
|462> 
|463> # 140h2o.sphere.gfn2.md.500k.prod1.3h2o.dset.1h2o.dset-orca.engrad-mp2.def2tzvp-14000.to.14026
|464> ! MP2 def2-TZVP EnGrad TightSCF FrozenCore
|465> 
|466> %pal
|467>     nprocs 12
|468> end
|469> 
|470> %maxcore 8000
|471> 
|472> %scf
|473>     ConvForced true
|474> end
|475> 
|476> *xyz 0 1
|477> O  -0.014260251  -0.044001483  -0.040231339
|478> H  -0.627492447   0.537564129   0.447036115
|479> H   0.853867850   0.160940646   0.191619229
|480> *
|481> 
|482> 
|483> $new_job
|484> 
|485> # 140h2o.sphere.gfn2.md.500k.prod1.3h2o.dset.1h2o.dset-orca.engrad-mp2.def2tzvp-14000.to.14026
|486> ! MP2 def2-TZVP EnGrad TightSCF FrozenCore
|487> 
|488> %pal
|489>     nprocs 12
|490> end
|491> 
|492> %maxcore 8000
|493> 
|494> %scf
|495>     ConvForced true
|496> end
|497> 
|498> *xyz 0 1
|499> O   0.015766259  -0.066726562  -0.005108327
|500> H  -0.777802780   0.394278717  -0.277679612
|501> H   0.527520151   0.664976980   0.358772120
|502> *
|503> 
|504> 
|505> $new_job
|506> 
|507> # 140h2o.sphere.gfn2.md.500k.prod1.3h2o.dset.1h2o.dset-orca.engrad-mp2.def2tzvp-14000.to.14026
|508> ! MP2 def2-TZVP EnGrad TightSCF FrozenCore
|509> 
|510> %pal
|511>     nprocs 12
|512> end
|513> 
|514> %maxcore 8000
|515> 
|516> %scf
|517>     ConvForced true
|518> end
|519> 
|520> *xyz 0 1
|521> O   0.035526089  -0.031458506  -0.050922759
|522> H   0.207408195   0.867796198   0.485257855
|523> H  -0.771369696  -0.368405840   0.323119210
|524> *
|525> 
|526> 
|527> $new_job
|528> 
|529> # 140h2o.sphere.gfn2.md.500k.prod1.3h2o.dset.1h2o.dset-orca.engrad-mp2.def2tzvp-14000.to.14026
|530> ! MP2 def2-TZVP EnGrad TightSCF FrozenCore
|531> 
|532> %pal
|533>     nprocs 12
|534> end
|535> 
|536> %maxcore 8000
|537> 
|538> %scf
|539>     ConvForced true
|540> end
|541> 
|542> *xyz 0 1
|543> O   0.025817398  -0.003488213   0.054866827
|544> H   0.078748129  -0.677495836  -0.625731482
|545> H  -0.488588308   0.732869729  -0.245255988
|546> *
|547> 
|548> 
|549> $new_job
|550> 
|551> # 140h2o.sphere.gfn2.md.500k.prod1.3h2o.dset.1h2o.dset-orca.engrad-mp2.def2tzvp-14000.to.14026
|552> ! MP2 def2-TZVP EnGrad TightSCF FrozenCore
|553> 
|554> %pal
|555>     nprocs 12
|556> end
|557> 
|558> %maxcore 8000
|559> 
|560> %scf
|561>     ConvForced true
|562> end
|563> 
|564> *xyz 0 1
|565> O  -0.048618165   0.026244810   0.035019691
|566> H   0.111996399   0.090166594  -0.921482351
|567> H   0.659796228  -0.506791752   0.365559691
|568> *
|569> 
|570> 
|571> $new_job
|572> 
|573> # 140h2o.sphere.gfn2.md.500k.prod1.3h2o.dset.1h2o.dset-orca.engrad-mp2.def2tzvp-14000.to.14026
|574> ! MP2 def2-TZVP EnGrad TightSCF FrozenCore
|575> 
|576> %pal
|577>     nprocs 12
|578> end
|579> 
|580> %maxcore 8000
|581> 
|582> %scf
|583>     ConvForced true
|584> end
|585> 
|586> *xyz 0 1
|587> O  -0.028873073   0.026160746  -0.042467791
|588> H   0.520043142  -0.739889340  -0.118147041
|589> H  -0.061695434   0.324598652   0.792305106
|590> *
|591> 
|592>                          ****END OF INPUT****
================================================================================


                 $$$$$$$$$$$$$$$$$$$$$$$$$$$$$$$$$$$$$$$$$$$$$$ 
                 $ THERE ARE 27 JOBS TO BE PROCESSED THIS RUN $
                 $$$$$$$$$$$$$$$$$$$$$$$$$$$$$$$$$$$$$$$$$$$$$$ 




                 $$$$$$$$$$$$$$$$  JOB NUMBER  1 $$$$$$$$$$$$$$


                     *******************************
                     * Energy+Gradient Calculation *
                     *******************************

---------------------------------
CARTESIAN COORDINATES (ANGSTROEM)
---------------------------------
  O     -0.039787    0.059782    0.027780
  H     -0.143492   -0.886150    0.122830
  H      0.775086   -0.062871   -0.563820

----------------------------
CARTESIAN COORDINATES (A.U.)
----------------------------
  NO LB      ZA    FRAG     MASS         X           Y           Z
   0 O     8.0000    0    15.999   -0.075186    0.112972    0.052496
   1 H     1.0000    0     1.008   -0.271161   -1.674581    0.232115
   2 H     1.0000    0     1.008    1.464700   -0.118808   -1.065466

--------------------------------
INTERNAL COORDINATES (ANGSTROEM)
--------------------------------
 O      0   0   0     0.000000000000     0.00000000     0.00000000
 H      1   0   0     0.956335493838     0.00000000     0.00000000
 H      1   2   0     1.014421826876    91.45995609     0.00000000

---------------------------
INTERNAL COORDINATES (A.U.)
---------------------------
 O      0   0   0     0.000000000000     0.00000000     0.00000000
 H      1   0   0     1.807212175503     0.00000000     0.00000000
 H      1   2   0     1.916979437067    91.45995609     0.00000000

---------------------
BASIS SET INFORMATION
---------------------
There are 2 groups of distinct atoms

 Group   1 Type O   : 11s6p2d1f contracted to 5s3p2d1f pattern {62111/411/11/1}
 Group   2 Type H   : 5s1p contracted to 3s1p pattern {311/1}

Atom   0O    basis set group =>   1
Atom   1H    basis set group =>   2
Atom   2H    basis set group =>   2


           ************************************************************
           *        Program running with 12 parallel MPI-processes    *
           *              working on a common directory               *
           ************************************************************
------------------------------------------------------------------------------
                           ORCA GTO INTEGRAL CALCULATION
------------------------------------------------------------------------------

                         BASIS SET STATISTICS AND STARTUP INFO

 # of primitive gaussian shells          ...   32
 # of primitive gaussian functions       ...   62
 # of contracted shells                  ...   19
 # of contracted basis functions         ...   43
 Highest angular momentum                ...    3
 Maximum contraction depth               ...    6
 Integral package used                   ... LIBINT
 Integral threshhold            Thresh   ...  2.500e-11
 Primitive cut-off              TCut     ...  2.500e-12


------------------------------ INTEGRAL EVALUATION ----------------------------


 * One electron integrals 
 Pre-screening matrix                    ... done
 Shell pair data                         ... done (   0.000 sec)



           ************************************************************
           *        Program running with 12 parallel MPI-processes    *
           *              working on a common directory               *
           ************************************************************
-------------------------------------------------------------------------------
                                 ORCA SCF
-------------------------------------------------------------------------------

------------
SCF SETTINGS
------------
Hamiltonian:
 Ab initio Hamiltonian  Method          .... Hartree-Fock(GTOs)


General Settings:
 Integral files         IntName         .... 140h2o.sphere.gfn2.md.500k.prod1.3h2o.dset.1h2o.dset-orca.engrad-mp2.def2tzvp-14000.to.14026
 Hartree-Fock type      HFTyp           .... RHF
 Total Charge           Charge          ....    0
 Multiplicity           Mult            ....    1
 Number of Electrons    NEL             ....   10
 Basis Dimension        Dim             ....   43
 Nuclear Repulsion      ENuc            ....      8.9747750670 Eh

Convergence Acceleration:
 DIIS                   CNVDIIS         .... on
   Start iteration      DIISMaxIt       ....    12
   Startup error        DIISStart       ....  0.200000
   # of expansion vecs  DIISMaxEq       ....     5
   Bias factor          DIISBfac        ....   1.050
   Max. coefficient     DIISMaxC        ....  10.000
 Newton-Raphson         CNVNR           .... off
 SOSCF                  CNVSOSCF        .... on
   Start iteration      SOSCFMaxIt      ....   150
   Startup grad/error   SOSCFStart      ....  0.003300
 Level Shifting         CNVShift        .... on
   Level shift para.    LevelShift      ....    0.2500
   Turn off err/grad.   ShiftErr        ....    0.0010
 Zerner damping         CNVZerner       .... off
 Static damping         CNVDamp         .... on
   Fraction old density DampFac         ....    0.7000
   Max. Damping (<1)    DampMax         ....    0.9800
   Min. Damping (>=0)   DampMin         ....    0.0000
   Turn off err/grad.   DampErr         ....    0.1000
 Fernandez-Rico         CNVRico         .... off

SCF Procedure:
 Maximum # iterations   MaxIter         ....   125
 SCF integral mode      SCFMode         .... Direct
   Integral package                     .... LIBINT
 Reset frequency        DirectResetFreq ....    20
 Integral Threshold     Thresh          ....  2.500e-11 Eh
 Primitive CutOff       TCut            ....  2.500e-12 Eh

Convergence Tolerance:
 Convergence Check Mode ConvCheckMode   .... Total+1el-Energy
 Convergence forced     ConvForced      .... 1
 Energy Change          TolE            ....  1.000e-08 Eh
 1-El. energy change                    ....  1.000e-05 Eh
 Orbital Gradient       TolG            ....  1.000e-05
 Orbital Rotation angle TolX            ....  1.000e-05
 DIIS Error             TolErr          ....  5.000e-07


Diagonalization of the overlap matrix:
Smallest eigenvalue                        ... 9.017e-03
Time for diagonalization                   ...    0.001 sec
Threshold for overlap eigenvalues          ... 1.000e-08
Number of eigenvalues below threshold      ... 0
Time for construction of square roots      ...    0.001 sec
Total time needed                          ...    0.001 sec

-------------------
DFT GRID GENERATION
-------------------

General Integration Accuracy     IntAcc      ...  4.340
Radial Grid Type                 RadialGrid  ... Gauss-Chebyshev
Angular Grid (max. acc.)         AngularGrid ... Lebedev-110
Angular grid pruning method      GridPruning ... 3 (G Style)
Weight generation scheme         WeightScheme... Becke
Basis function cutoff            BFCut       ...    1.0000e-11
Integration weight cutoff        WCut        ...    1.0000e-14
Grids for H and He will be reduced by one unit

# of grid points (after initial pruning)     ...   3304 (   0.0 sec)
# of grid points (after weights+screening)   ...   3273 (   0.0 sec)
nearest neighbour list constructed           ...    0.0 sec
Grid point re-assignment to atoms done       ...    0.0 sec
Grid point division into batches done        ...    0.0 sec
Reduced shell lists constructed in    0.0 sec

Total number of grid points                  ...     3273
Total number of batches                      ...       53
Average number of points per batch           ...       61
Average number of grid points per atom       ...     1091
Average number of shells per batch           ...    13.33 (70.18%)
Average number of basis functions per batch  ...    32.00 (74.42%)
Average number of large shells per batch     ...    12.17 (91.25%)
Average number of large basis fcns per batch ...    27.83 (86.98%)
Maximum spatial batch extension              ...  18.30, 13.89, 18.30 au
Average spatial batch extension              ...   1.17,  0.87,  1.23 au

Time for grid setup =    0.008 sec

------------------------------
INITIAL GUESS: MODEL POTENTIAL
------------------------------
Loading Hartree-Fock densities                     ... done
Calculating cut-offs                               ... done
Setting up the integral package                    ... done
Initializing the effective Hamiltonian             ... done
Starting the Coulomb interaction                   ... done (   0.0 sec)
Reading the grid                                   ... done
Mapping shells                                     ... done
Starting the XC term evaluation                    ... done (   0.0 sec)
Transforming the Hamiltonian                       ... done (   0.0 sec)
Diagonalizing the Hamiltonian                      ... done (   0.0 sec)
Back transforming the eigenvectors                 ... done (   0.0 sec)
Now organizing SCF variables                       ... done
                      ------------------
                      INITIAL GUESS DONE (   0.1 sec)
                      ------------------
--------------
SCF ITERATIONS
--------------
ITER       Energy         Delta-E        Max-DP      RMS-DP      [F,P]     Damp
               ***  Starting incremental Fock matrix formation  ***
  0    -75.9477464936   0.000000000000 0.04234341  0.00250345  0.3372936 0.7000
  1    -75.9884415668  -0.040695073219 0.02829484  0.00172341  0.2162508 0.7000
                               ***Turning on DIIS***
  2    -76.0094529387  -0.021011371946 0.01583649  0.00092926  0.1640593 0.7000
  3    -76.1838927259  -0.174439787133 0.00657549  0.00039191  0.1219568 0.7000
  4    -76.1470766773   0.036816048608 0.01392837  0.00089247  0.0862339 0.0000
  5    -76.0583595880   0.088717089276 0.00192576  0.00014416  0.0053177 0.0000
                      *** Initiating the SOSCF procedure ***
                           *** Shutting down DIIS ***
                      *** Re-Reading the Fockian *** 
                      *** Removing any level shift *** 
ITER      Energy       Delta-E        Grad      Rot      Max-DP    RMS-DP
  6    -76.05157623   0.0067833545  0.001246  0.001246  0.001026  0.000078
               *** Restarting incremental Fock matrix formation ***
  7    -76.04948822   0.0020880120  0.000352  0.000487  0.000311  0.000031
  8    -76.04948949  -0.0000012672  0.000245  0.000384  0.000367  0.000026
  9    -76.04948978  -0.0000002911  0.000071  0.000061  0.000063  0.000004
 10    -76.04948980  -0.0000000247  0.000008  0.000006  0.000006  0.000001
                 **** Energy Check signals convergence ****
              ***Rediagonalizing the Fockian in SOSCF/NRSCF***

               *****************************************************
               *                     SUCCESS                       *
               *           SCF CONVERGED AFTER  11 CYCLES          *
               *****************************************************


----------------
TOTAL SCF ENERGY
----------------

Total Energy       :          -76.04948980 Eh           -2069.41182 eV

Components:
Nuclear Repulsion  :            8.97477507 Eh             244.21605 eV
Electronic Energy  :          -85.02426487 Eh           -2313.62787 eV
One Electron Energy:         -122.64442141 Eh           -3337.32437 eV
Two Electron Energy:           37.62015654 Eh            1023.69650 eV

Virial components:
Potential Energy   :         -151.97449264 Eh           -4135.43619 eV
Kinetic Energy     :           75.92500283 Eh            2066.02436 eV
Virial Ratio       :            2.00163960


---------------
SCF CONVERGENCE
---------------

  Last Energy change         ...   -3.7669e-10  Tolerance :   1.0000e-08
  Last MAX-Density change    ...    2.2004e-06  Tolerance :   1.0000e-07
  Last RMS-Density change    ...    2.4793e-07  Tolerance :   5.0000e-09
  Last Orbital Gradient      ...    1.9927e-06  Tolerance :   1.0000e-05
  Last Orbital Rotation      ...    2.7212e-06  Tolerance :   1.0000e-05

             **** THE GBW FILE WAS UPDATED (140h2o.sphere.gfn2.md.500k.prod1.3h2o.dset.1h2o.dset-orca.engrad-mp2.def2tzvp-14000.to.14026.gbw) ****
             **** DENSITY FILE WAS UPDATED (140h2o.sphere.gfn2.md.500k.prod1.3h2o.dset.1h2o.dset-orca.engrad-mp2.def2tzvp-14000.to.14026.scfp) ****
             **** ENERGY FILE WAS UPDATED (140h2o.sphere.gfn2.md.500k.prod1.3h2o.dset.1h2o.dset-orca.engrad-mp2.def2tzvp-14000.to.14026.en.tmp) ****
             **** THE GBW FILE WAS UPDATED (140h2o.sphere.gfn2.md.500k.prod1.3h2o.dset.1h2o.dset-orca.engrad-mp2.def2tzvp-14000.to.14026.gbw) ****
             **** DENSITY FILE WAS UPDATED (140h2o.sphere.gfn2.md.500k.prod1.3h2o.dset.1h2o.dset-orca.engrad-mp2.def2tzvp-14000.to.14026.scfp) ****
----------------
ORBITAL ENERGIES
----------------

  NO   OCC          E(Eh)            E(eV) 
   0   2.0000     -20.570287      -559.7460 
   1   2.0000      -1.346216       -36.6324 
   2   2.0000      -0.674462       -18.3530 
   3   2.0000      -0.601125       -16.3574 
   4   2.0000      -0.509968       -13.8769 
   5   0.0000       0.121511         3.3065 
   6   0.0000       0.196903         5.3580 
   7   0.0000       0.497798        13.5458 
   8   0.0000       0.573268        15.5994 
   9   0.0000       0.596421        16.2294 
  10   0.0000       0.645587        17.5673 
  11   0.0000       0.762133        20.7387 
  12   0.0000       0.772241        21.0137 
  13   0.0000       1.313176        35.7333 
  14   0.0000       1.465211        39.8704 
  15   0.0000       1.502417        40.8829 
  16   0.0000       1.790285        48.7161 
  17   0.0000       1.936470        52.6940 
  18   0.0000       2.073106        56.4121 
  19   0.0000       2.262255        61.5591 
  20   0.0000       2.312030        62.9135 
  21   0.0000       2.398625        65.2699 
  22   0.0000       2.550986        69.4159 
  23   0.0000       2.656012        72.2737 
  24   0.0000       2.863237        77.9126 
  25   0.0000       2.991401        81.4002 
  26   0.0000       3.023699        82.2790 
  27   0.0000       3.120566        84.9149 
  28   0.0000       4.115790       111.9963 
  29   0.0000       4.179278       113.7239 
  30   0.0000       5.537655       150.6873 
  31   0.0000       5.702044       155.1605 
  32   0.0000       5.757701       156.6750 
  33   0.0000       5.786485       157.4583 
  34   0.0000       5.863111       159.5434 
  35   0.0000       6.463368       175.8772 
  36   0.0000       6.676168       181.6678 
  37   0.0000       6.847960       186.3425 
  38   0.0000       6.858688       186.6344 
  39   0.0000       7.017374       190.9525 
  40   0.0000       7.213613       196.2924 
  41   0.0000       7.597075       206.7269 
  42   0.0000      44.801402      1219.1081 

                    ********************************
                    * MULLIKEN POPULATION ANALYSIS *
                    ********************************

-----------------------
MULLIKEN ATOMIC CHARGES
-----------------------
   0 O :   -0.655154
   1 H :    0.325947
   2 H :    0.329207
Sum of atomic charges:   -0.0000000

--------------------------------
MULLIKEN REDUCED ORBITAL CHARGES
--------------------------------
  0 O s       :     3.837720  s :     3.837720
      pz      :     1.762499  p :     4.786177
      px      :     1.585896
      py      :     1.437783
      dz2     :     0.003782  d :     0.029849
      dxz     :     0.007210
      dyz     :     0.002231
      dx2y2   :     0.014048
      dxy     :     0.002579
      f0      :     0.000217  f :     0.001407
      f+1     :     0.000155
      f-1     :     0.000276
      f+2     :     0.000325
      f-2     :     0.000061
      f+3     :     0.000045
      f-3     :     0.000329
  1 H s       :     0.625531  s :     0.625531
      pz      :     0.014997  p :     0.048522
      px      :     0.013773
      py      :     0.019752
  2 H s       :     0.628556  s :     0.628556
      pz      :     0.015316  p :     0.042236
      px      :     0.016840
      py      :     0.010081


                     *******************************
                     * LOEWDIN POPULATION ANALYSIS *
                     *******************************

----------------------
LOEWDIN ATOMIC CHARGES
----------------------
   0 O :   -0.341945
   1 H :    0.151518
   2 H :    0.190427

-------------------------------
LOEWDIN REDUCED ORBITAL CHARGES
-------------------------------
  0 O s       :     3.509609  s :     3.509609
      pz      :     1.732989  p :     4.793194
      px      :     1.579403
      py      :     1.480802
      dz2     :     0.004578  d :     0.036795
      dxz     :     0.010318
      dyz     :     0.001245
      dx2y2   :     0.018999
      dxy     :     0.001655
      f0      :     0.000208  f :     0.002346
      f+1     :     0.000127
      f-1     :     0.000458
      f+2     :     0.000545
      f-2     :     0.000066
      f+3     :     0.000185
      f-3     :     0.000757
  1 H s       :     0.681430  s :     0.681430
      pz      :     0.043173  p :     0.167052
      px      :     0.038290
      py      :     0.085588
  2 H s       :     0.670366  s :     0.670366
      pz      :     0.050172  p :     0.139207
      px      :     0.061342
      py      :     0.027693


                      *****************************
                      * MAYER POPULATION ANALYSIS *
                      *****************************

  NA   - Mulliken gross atomic population
  ZA   - Total nuclear charge
  QA   - Mulliken gross atomic charge
  VA   - Mayer's total valence
  BVA  - Mayer's bonded valence
  FA   - Mayer's free valence

  ATOM       NA         ZA         QA         VA         BVA        FA
  0 O      8.6552     8.0000    -0.6552     1.8050     1.8050    -0.0000
  1 H      0.6741     1.0000     0.3259     0.9086     0.9086    -0.0000
  2 H      0.6708     1.0000     0.3292     0.9031     0.9031    -0.0000

  Mayer bond orders larger than 0.100000
B(  0-O ,  1-H ) :   0.9053 B(  0-O ,  2-H ) :   0.8998 

-------
TIMINGS
-------

Total SCF time: 0 days 0 hours 0 min 1 sec 

Total time                  ....       1.206 sec
Sum of individual times     ....       1.062 sec  ( 88.1%)

Fock matrix formation       ....       0.934 sec  ( 77.5%)
Diagonalization             ....       0.003 sec  (  0.3%)
Density matrix formation    ....       0.021 sec  (  1.7%)
Population analysis         ....       0.001 sec  (  0.1%)
Initial guess               ....       0.071 sec  (  5.9%)
Orbital Transformation      ....       0.000 sec  (  0.0%)
Orbital Orthonormalization  ....       0.000 sec  (  0.0%)
DIIS solution               ....       0.002 sec  (  0.1%)
SOSCF solution              ....       0.022 sec  (  1.9%)


           ************************************************************
           *        Program running with 12 parallel MPI-processes    *
           *              working on a common directory               *
           ************************************************************

------------------------------------------------------------------------------
                                ORCA  MP2 
------------------------------------------------------------------------------

Freezing NCore=2 chemical core electrons
MP2 will be done in the AO integral direct mode
The Q1-step will be done using symmetric double matrices
Dimension of the basis                    ...   43
Memory devoted for MP2                    ... 8000 MB   
Memory needed for all in one shot         ...    1 MB
Number of MOs that can be treated together... 25776      
MP2 density construction                  ... relaxed
The MP2 gradient is requested => amplitudes will be stored on disk
Total number of MOs              ...    4
Number of MOs treated per batch  ...    1 
Number of batches necessary      ...    1 
OPERATORS   0/  0 PASS   0
-----------------------------------------------
 MP2 CORRELATION ENERGY   :     -0.257539747 Eh
-----------------------------------------------


---------------------
MP2 DENSITY FORMATION
---------------------

Completing the external part of the density      ... done
Storing the unrelaxed density                    ... done

Calculating G(D)                                 ... done
Completing the Lagrangian                        ... done
Solving the Z-vector equations                   ... 

------------------------------------------------------------------------------
                           ORCA CP-SCF CALCULATION
------------------------------------------------------------------------------

Input orbitals are from        ... 140h2o.sphere.gfn2.md.500k.prod1.3h2o.dset.1h2o.dset-orca.engrad-mp2.def2tzvp-14000.to.14026.gbw
Input Perturbation             ... 140h2o.sphere.gfn2.md.500k.prod1.3h2o.dset.1h2o.dset-orca.engrad-mp2.def2tzvp-14000.to.14026.pin.tmp
Wavefunction output            ... 140h2o.sphere.gfn2.md.500k.prod1.3h2o.dset.1h2o.dset-orca.engrad-mp2.def2tzvp-14000.to.14026.pout.tmp
Perturbation mode              ... Real perturbation (singlet)
Solver                         ... POPLE
Max. number of iterations      ... 128
Convergence tolerance          ... 1.000e-08
Integral handling              ... Direct
Number of perturbations        ... 1
Number of operators            ... 1
Orbital ranges used for CP-SCF:
 Operator 0:  Orbitals   0...  4  to   5... 42
Variables per vector in CP-SCF ... 190
Number of vectors sought       ... 1
     CP-SCF ITERATION   0: 
     CP-SCF ITERATION   1:      0.000130800665
     CP-SCF ITERATION   2:      0.000002909885
     CP-SCF ITERATION   3:      0.000000108962
     CP-SCF ITERATION   4:      0.000000001701
                                                 ... done
Finalizing the relaxed density                   ... done
Transforming P to the AO basis                   ... done
Storing the relaxed density                      ... done

------------------------------------
ENERGY WEIGHTED DENSITY FINALIZATION
------------------------------------

Gathering the parts of the W-matrix              ...                                                      done
Forming the Z-density                            ... done
Transforming Z to the AO basis                   ... done
Calculating G(Z)                                 ... done
Finalizing the W-matrix                          ...                                                      done
Transforming W to the AO basis and storing       ... done

                *********************************************
                * UNRELAXED MP2 DENSITY POPULATION ANALYSIS *
                *********************************************

------------------------------------------------------------------------------
                           ORCA POPULATION ANALYSIS
------------------------------------------------------------------------------
Input electron density              ... 140h2o.sphere.gfn2.md.500k.prod1.3h2o.dset.1h2o.dset-orca.engrad-mp2.def2tzvp-14000.to.14026.pmp2ur
BaseName (.gbw .S,...)              ... 140h2o.sphere.gfn2.md.500k.prod1.3h2o.dset.1h2o.dset-orca.engrad-mp2.def2tzvp-14000.to.14026

                    ********************************
                    * MULLIKEN POPULATION ANALYSIS *
                    ********************************

-----------------------
MULLIKEN ATOMIC CHARGES
-----------------------
   0 O :   -0.649357
   1 H :    0.323399
   2 H :    0.325957
Sum of atomic charges:   -0.0000000

--------------------------------
MULLIKEN REDUCED ORBITAL CHARGES
--------------------------------
  0 O s       :     3.832559  s :     3.832559
      pz      :     1.751737  p :     4.757057
      px      :     1.576232
      py      :     1.429089
      dz2     :     0.009145  d :     0.055790
      dxz     :     0.012290
      dyz     :     0.007609
      dx2y2   :     0.018897
      dxy     :     0.007850
      f0      :     0.000572  f :     0.003950
      f+1     :     0.000512
      f-1     :     0.000635
      f+2     :     0.000688
      f-2     :     0.000423
      f+3     :     0.000421
      f-3     :     0.000699
  1 H s       :     0.626310  s :     0.626310
      pz      :     0.015894  p :     0.050290
      px      :     0.014642
      py      :     0.019754
  2 H s       :     0.630053  s :     0.630053
      pz      :     0.015898  p :     0.043990
      px      :     0.017065
      py      :     0.011027


                     *******************************
                     * LOEWDIN POPULATION ANALYSIS *
                     *******************************

----------------------
LOEWDIN ATOMIC CHARGES
----------------------
   0 O :   -0.338233
   1 H :    0.150120
   2 H :    0.188113

-------------------------------
LOEWDIN REDUCED ORBITAL CHARGES
-------------------------------
  0 O s       :     3.505459  s :     3.505459
      pz      :     1.722432  p :     4.763565
      px      :     1.569630
      py      :     1.471503
      dz2     :     0.010103  d :     0.064126
      dxz     :     0.016085
      dyz     :     0.006461
      dx2y2   :     0.024715
      dxy     :     0.006761
      f0      :     0.000585  f :     0.005083
      f+1     :     0.000499
      f-1     :     0.000851
      f+2     :     0.000954
      f-2     :     0.000437
      f+3     :     0.000576
      f-3     :     0.001181
  1 H s       :     0.679481  s :     0.679481
      pz      :     0.043896  p :     0.170399
      px      :     0.038982
      py      :     0.087522
  2 H s       :     0.669127  s :     0.669127
      pz      :     0.051369  p :     0.142760
      px      :     0.062797
      py      :     0.028593


                      *****************************
                      * MAYER POPULATION ANALYSIS *
                      *****************************

  NA   - Mulliken gross atomic population
  ZA   - Total nuclear charge
  QA   - Mulliken gross atomic charge
  VA   - Mayer's total valence
  BVA  - Mayer's bonded valence
  FA   - Mayer's free valence

  ATOM       NA         ZA         QA         VA         BVA        FA
  0 O      8.6494     8.0000    -0.6494     2.1031     1.7157     0.3874
  1 H      0.6766     1.0000     0.3234     0.9151     0.8658     0.0493
  2 H      0.6740     1.0000     0.3260     0.9099     0.8560     0.0539

  Mayer bond orders larger than 0.100000
B(  0-O ,  1-H ) :   0.8627 B(  0-O ,  2-H ) :   0.8529 


                *******************************************
                * RELAXED MP2 DENSITY POPULATION ANALYSIS *
                *******************************************

------------------------------------------------------------------------------
                           ORCA POPULATION ANALYSIS
------------------------------------------------------------------------------
Input electron density              ... 140h2o.sphere.gfn2.md.500k.prod1.3h2o.dset.1h2o.dset-orca.engrad-mp2.def2tzvp-14000.to.14026.pmp2re
BaseName (.gbw .S,...)              ... 140h2o.sphere.gfn2.md.500k.prod1.3h2o.dset.1h2o.dset-orca.engrad-mp2.def2tzvp-14000.to.14026

                    ********************************
                    * MULLIKEN POPULATION ANALYSIS *
                    ********************************

-----------------------
MULLIKEN ATOMIC CHARGES
-----------------------
   0 O :   -0.632729
   1 H :    0.314326
   2 H :    0.318403
Sum of atomic charges:   -0.0000000

--------------------------------
MULLIKEN REDUCED ORBITAL CHARGES
--------------------------------
  0 O s       :     3.841864  s :     3.841864
      pz      :     1.747091  p :     4.733783
      px      :     1.569773
      py      :     1.416919
      dz2     :     0.008873  d :     0.053204
      dxz     :     0.011376
      dyz     :     0.007698
      dx2y2   :     0.017348
      dxy     :     0.007909
      f0      :     0.000568  f :     0.003878
      f+1     :     0.000511
      f-1     :     0.000619
      f+2     :     0.000672
      f-2     :     0.000421
      f+3     :     0.000415
      f-3     :     0.000671
  1 H s       :     0.634453  s :     0.634453
      pz      :     0.016949  p :     0.051221
      px      :     0.015498
      py      :     0.018773
  2 H s       :     0.636738  s :     0.636738
      pz      :     0.016358  p :     0.044858
      px      :     0.016778
      py      :     0.011722


                     *******************************
                     * LOEWDIN POPULATION ANALYSIS *
                     *******************************

----------------------
LOEWDIN ATOMIC CHARGES
----------------------
   0 O :   -0.340475
   1 H :    0.150943
   2 H :    0.189532

-------------------------------
LOEWDIN REDUCED ORBITAL CHARGES
-------------------------------
  0 O s       :     3.508752  s :     3.508752
      pz      :     1.721615  p :     4.763710
      px      :     1.570410
      py      :     1.471685
      dz2     :     0.010016  d :     0.062910
      dxz     :     0.015643
      dyz     :     0.006508
      dx2y2   :     0.023936
      dxy     :     0.006806
      f0      :     0.000591  f :     0.005104
      f+1     :     0.000502
      f-1     :     0.000855
      f+2     :     0.000963
      f-2     :     0.000438
      f+3     :     0.000576
      f-3     :     0.001180
  1 H s       :     0.678441  s :     0.678441
      pz      :     0.044661  p :     0.170616
      px      :     0.039331
      py      :     0.086624
  2 H s       :     0.667115  s :     0.667115
      pz      :     0.051878  p :     0.143353
      px      :     0.062550
      py      :     0.028925


                      *****************************
                      * MAYER POPULATION ANALYSIS *
                      *****************************

  NA   - Mulliken gross atomic population
  ZA   - Total nuclear charge
  QA   - Mulliken gross atomic charge
  VA   - Mayer's total valence
  BVA  - Mayer's bonded valence
  FA   - Mayer's free valence

  ATOM       NA         ZA         QA         VA         BVA        FA
  0 O      8.6327     8.0000    -0.6327     2.1075     1.7254     0.3821
  1 H      0.6857     1.0000     0.3143     0.9207     0.8713     0.0494
  2 H      0.6816     1.0000     0.3184     0.9149     0.8608     0.0542

  Mayer bond orders larger than 0.100000
B(  0-O ,  1-H ) :   0.8680 B(  0-O ,  2-H ) :   0.8575 


----------------------------------
MP2 DERIVATIVE INTEGRAL GENERATION
----------------------------------


Input Wavefunction Amplitudes       ... 140h2o.sphere.gfn2.md.500k.prod1.3h2o.dset.1h2o.dset-orca.engrad-mp2.def2tzvp-14000.to.14026.mp2tsaa.tmp
Input Correlated Electron Density   ... 140h2o.sphere.gfn2.md.500k.prod1.3h2o.dset.1h2o.dset-orca.engrad-mp2.def2tzvp-14000.to.14026.pmp2re
Input Energy Weighted Density       ... 140h2o.sphere.gfn2.md.500k.prod1.3h2o.dset.1h2o.dset-orca.engrad-mp2.def2tzvp-14000.to.14026.wmp2.tmp
Input SCF Electron Density          ... 140h2o.sphere.gfn2.md.500k.prod1.3h2o.dset.1h2o.dset-orca.engrad-mp2.def2tzvp-14000.to.14026.scfp

One-Electron Terms    ...
                        ... One-Electron Terms done
Prescreening matrices              ... done

Batch handling in the gradient evaluation:
Memory available                      ... 8000.0 MB
Memory per occupied orbital in Q2     ...    0.1 MB
Memory per occupied orbital in Q3     ...    0.0 MB
Total memory requirement per |i>      ...    0.1 MB
Max. Number of orbitals possible      ... 110341
Number of orbitals treated per batch  ...      4
Number of batches to be done          ...      1
Batch   0: i=    1 ...     4

---------------------------------------
MP2 TOTAL ENERGY:      -76.307029552 Eh
---------------------------------------

The final MP2 gradient
  0:  -0.04529244   0.01115784   0.03279296
  1:   0.01733499   0.01168624  -0.01287896
  2:   0.02795745  -0.02284409  -0.01991400

-----------------------------------
NORM OF THE MP2 GRADIENT:  0.074527
-----------------------------------

-------------------------   --------------------
FINAL SINGLE POINT ENERGY       -76.307029551996
-------------------------   --------------------


                            ***************************************
                            *     ORCA property calculations      *
                            ***************************************

                                    ---------------------
                                    Active property flags
                                    ---------------------
   (+) Dipole Moment


------------------------------------------------------------------------------
                       ORCA ELECTRIC PROPERTIES CALCULATION
------------------------------------------------------------------------------

Dipole Moment Calculation                       ... on
Quadrupole Moment Calculation                   ... off
Polarizability Calculation                      ... off
GBWName                                         ... 140h2o.sphere.gfn2.md.500k.prod1.3h2o.dset.1h2o.dset-orca.engrad-mp2.def2tzvp-14000.to.14026.gbw
Electron density file                           ... 140h2o.sphere.gfn2.md.500k.prod1.3h2o.dset.1h2o.dset-orca.engrad-mp2.def2tzvp-14000.to.14026.scfp
The origin for moment calculation is the CENTER OF MASS  = ( 0.000011, -0.000016 -0.000007)

-------------
DIPOLE MOMENT
-------------
                                X             Y             Z
Electronic contribution:     -0.11943       0.15019       0.08399
Nuclear contribution   :      0.59195      -0.88945      -0.41331
                        -----------------------------------------
Total Dipole Moment    :      0.47252      -0.73926      -0.32932
                        -----------------------------------------
Magnitude (a.u.)       :      0.93714
Magnitude (Debye)      :      2.38201



--------------------
Rotational spectrum 
--------------------
 
Rotational constants in cm-1:    20.290388    16.502438     9.100711 
Rotational constants in MHz : 608290.539605 494730.631352 272832.444769 

 Dipole components along the rotational axes: 
x,y,z [a.u.] :     0.289566     0.891277     0.000001 
x,y,z [Debye]:     0.736018     2.265447     0.000002 

 

                         *** MP2 UNRELAXED DENSITY ***

------------------------------------------------------------------------------
                       ORCA ELECTRIC PROPERTIES CALCULATION
------------------------------------------------------------------------------

Dipole Moment Calculation                       ... on
Quadrupole Moment Calculation                   ... off
Polarizability Calculation                      ... off
GBWName                                         ... 140h2o.sphere.gfn2.md.500k.prod1.3h2o.dset.1h2o.dset-orca.engrad-mp2.def2tzvp-14000.to.14026.gbw
Electron density file                           ... 140h2o.sphere.gfn2.md.500k.prod1.3h2o.dset.1h2o.dset-orca.engrad-mp2.def2tzvp-14000.to.14026.pmp2ur
The origin for moment calculation is the CENTER OF MASS  = ( 0.000011, -0.000016 -0.000007)

-------------
DIPOLE MOMENT
-------------
                                X             Y             Z
Electronic contribution:     -0.12679       0.15985       0.08916
Nuclear contribution   :      0.59195      -0.88945      -0.41331
                        -----------------------------------------
Total Dipole Moment    :      0.46516      -0.72960      -0.32415
                        -----------------------------------------
Magnitude (a.u.)       :      0.92399
Magnitude (Debye)      :      2.34861



--------------------
Rotational spectrum 
--------------------
 
Rotational constants in cm-1:    20.290388    16.502438     9.100711 
Rotational constants in MHz : 608290.539605 494730.631352 272832.444769 

 Dipole components along the rotational axes: 
x,y,z [a.u.] :     0.284402     0.879137     0.000001 
x,y,z [Debye]:     0.722893     2.234588     0.000002 

 

                           *** MP2 RELAXED DENSITY ***

------------------------------------------------------------------------------
                       ORCA ELECTRIC PROPERTIES CALCULATION
------------------------------------------------------------------------------

Dipole Moment Calculation                       ... on
Quadrupole Moment Calculation                   ... off
Polarizability Calculation                      ... off
GBWName                                         ... 140h2o.sphere.gfn2.md.500k.prod1.3h2o.dset.1h2o.dset-orca.engrad-mp2.def2tzvp-14000.to.14026.gbw
Electron density file                           ... 140h2o.sphere.gfn2.md.500k.prod1.3h2o.dset.1h2o.dset-orca.engrad-mp2.def2tzvp-14000.to.14026.pmp2re
The origin for moment calculation is the CENTER OF MASS  = ( 0.000011, -0.000016 -0.000007)

-------------
DIPOLE MOMENT
-------------
                                X             Y             Z
Electronic contribution:     -0.13420       0.17411       0.09427
Nuclear contribution   :      0.59195      -0.88945      -0.41331
                        -----------------------------------------
Total Dipole Moment    :      0.45775      -0.71534      -0.31904
                        -----------------------------------------
Magnitude (a.u.)       :      0.90721
Magnitude (Debye)      :      2.30595



--------------------
Rotational spectrum 
--------------------
 
Rotational constants in cm-1:    20.290388    16.502438     9.100711 
Rotational constants in MHz : 608290.539605 494730.631352 272832.444769 

 Dipole components along the rotational axes: 
x,y,z [a.u.] :     0.280802     0.862661     0.000001 
x,y,z [Debye]:     0.713743     2.192709     0.000002 

 

Timings for individual modules:

Sum of individual times         ...        4.375 sec (=   0.073 min)
GTO integral calculation        ...        0.919 sec (=   0.015 min)  21.0 %
SCF iterations                  ...        1.929 sec (=   0.032 min)  44.1 %
MP2 module                      ...        1.527 sec (=   0.025 min)  34.9 %


                 $$$$$$$$$$$$$$$$  JOB NUMBER  2 $$$$$$$$$$$$$$


                     *******************************
                     * Energy+Gradient Calculation *
                     *******************************

---------------------------------
CARTESIAN COORDINATES (ANGSTROEM)
---------------------------------
  O      0.042491    0.012667   -0.043127
  H      0.180584    0.042329    0.924282
  H     -0.855115   -0.243415   -0.239659

----------------------------
CARTESIAN COORDINATES (A.U.)
----------------------------
  NO LB      ZA    FRAG     MASS         X           Y           Z
   0 O     8.0000    0    15.999    0.080297    0.023938   -0.081498
   1 H     1.0000    0     1.008    0.341254    0.079990    1.746639
   2 H     1.0000    0     1.008   -1.615932   -0.459988   -0.452890

--------------------------------
INTERNAL COORDINATES (ANGSTROEM)
--------------------------------
 O      0   0   0     0.000000000000     0.00000000     0.00000000
 H      1   0   0     0.977665159183     0.00000000     0.00000000
 H      1   2   0     0.953886313960   110.17752438     0.00000000

---------------------------
INTERNAL COORDINATES (A.U.)
---------------------------
 O      0   0   0     0.000000000000     0.00000000     0.00000000
 H      1   0   0     1.847519401533     0.00000000     0.00000000
 H      1   2   0     1.802583896279   110.17752438     0.00000000

---------------------
BASIS SET INFORMATION
---------------------
There are 2 groups of distinct atoms

 Group   1 Type O   : 11s6p2d1f contracted to 5s3p2d1f pattern {62111/411/11/1}
 Group   2 Type H   : 5s1p contracted to 3s1p pattern {311/1}

Atom   0O    basis set group =>   1
Atom   1H    basis set group =>   2
Atom   2H    basis set group =>   2


           ************************************************************
           *        Program running with 12 parallel MPI-processes    *
           *              working on a common directory               *
           ************************************************************
------------------------------------------------------------------------------
                           ORCA GTO INTEGRAL CALCULATION
------------------------------------------------------------------------------

                         BASIS SET STATISTICS AND STARTUP INFO

 # of primitive gaussian shells          ...   32
 # of primitive gaussian functions       ...   62
 # of contracted shells                  ...   19
 # of contracted basis functions         ...   43
 Highest angular momentum                ...    3
 Maximum contraction depth               ...    6
 Integral package used                   ... LIBINT
 Integral threshhold            Thresh   ...  2.500e-11
 Primitive cut-off              TCut     ...  2.500e-12


------------------------------ INTEGRAL EVALUATION ----------------------------


 * One electron integrals 
 Pre-screening matrix                    ... done
 Shell pair data                         ... done (   0.000 sec)



           ************************************************************
           *        Program running with 12 parallel MPI-processes    *
           *              working on a common directory               *
           ************************************************************
-------------------------------------------------------------------------------
                                 ORCA SCF
-------------------------------------------------------------------------------

------------
SCF SETTINGS
------------
Hamiltonian:
 Ab initio Hamiltonian  Method          .... Hartree-Fock(GTOs)


General Settings:
 Integral files         IntName         .... 140h2o.sphere.gfn2.md.500k.prod1.3h2o.dset.1h2o.dset-orca.engrad-mp2.def2tzvp-14000.to.14026_job2
 Hartree-Fock type      HFTyp           .... RHF
 Total Charge           Charge          ....    0
 Multiplicity           Mult            ....    1
 Number of Electrons    NEL             ....   10
 Basis Dimension        Dim             ....   43
 Nuclear Repulsion      ENuc            ....      9.1022790335 Eh

Convergence Acceleration:
 DIIS                   CNVDIIS         .... on
   Start iteration      DIISMaxIt       ....    12
   Startup error        DIISStart       ....  0.200000
   # of expansion vecs  DIISMaxEq       ....     5
   Bias factor          DIISBfac        ....   1.050
   Max. coefficient     DIISMaxC        ....  10.000
 Newton-Raphson         CNVNR           .... off
 SOSCF                  CNVSOSCF        .... on
   Start iteration      SOSCFMaxIt      ....   150
   Startup grad/error   SOSCFStart      ....  0.003300
 Level Shifting         CNVShift        .... on
   Level shift para.    LevelShift      ....    0.2500
   Turn off err/grad.   ShiftErr        ....    0.0010
 Zerner damping         CNVZerner       .... off
 Static damping         CNVDamp         .... on
   Fraction old density DampFac         ....    0.7000
   Max. Damping (<1)    DampMax         ....    0.9800
   Min. Damping (>=0)   DampMin         ....    0.0000
   Turn off err/grad.   DampErr         ....    0.1000
 Fernandez-Rico         CNVRico         .... off

SCF Procedure:
 Maximum # iterations   MaxIter         ....   125
 SCF integral mode      SCFMode         .... Direct
   Integral package                     .... LIBINT
 Reset frequency        DirectResetFreq ....    20
 Integral Threshold     Thresh          ....  2.500e-11 Eh
 Primitive CutOff       TCut            ....  2.500e-12 Eh

Convergence Tolerance:
 Convergence Check Mode ConvCheckMode   .... Total+1el-Energy
 Convergence forced     ConvForced      .... 1
 Energy Change          TolE            ....  1.000e-08 Eh
 1-El. energy change                    ....  1.000e-05 Eh
 Orbital Gradient       TolG            ....  1.000e-05
 Orbital Rotation angle TolX            ....  1.000e-05
 DIIS Error             TolErr          ....  5.000e-07


Diagonalization of the overlap matrix:
Smallest eigenvalue                        ... 8.610e-03
Time for diagonalization                   ...    0.001 sec
Threshold for overlap eigenvalues          ... 1.000e-08
Number of eigenvalues below threshold      ... 0
Time for construction of square roots      ...    0.001 sec
Total time needed                          ...    0.001 sec

---------------------
INITIAL GUESS: MOREAD
---------------------
Guess MOs are being read from file: 140h2o.sphere.gfn2.md.500k.prod1.3h2o.dset.1h2o.dset-orca.engrad-mp2.def2tzvp-14000.to.14026.gbw
Input geometry compatible with but different from current geometry
Input basis set matches current basis set (good)
MOs were renormalized
MOs were reorthogonalized (Cholesky)
                      ------------------
                      INITIAL GUESS DONE (   0.0 sec)
                      ------------------
--------------
SCF ITERATIONS
--------------
ITER       Energy         Delta-E        Max-DP      RMS-DP      [F,P]     Damp
[...]
Sum of individual times     ....       1.119 sec  ( 88.8%)

Fock matrix formation       ....       1.087 sec  ( 86.3%)
Diagonalization             ....       0.004 sec  (  0.3%)
Density matrix formation    ....       0.002 sec  (  0.2%)
Population analysis         ....       0.001 sec  (  0.1%)
Initial guess               ....       0.002 sec  (  0.1%)
Orbital Transformation      ....       0.000 sec  (  0.0%)
Orbital Orthonormalization  ....       0.000 sec  (  0.0%)
DIIS solution               ....       0.002 sec  (  0.2%)
SOSCF solution              ....       0.020 sec  (  1.6%)


           ************************************************************
           *        Program running with 12 parallel MPI-processes    *
           *              working on a common directory               *
           ************************************************************

------------------------------------------------------------------------------
                                ORCA  MP2 
------------------------------------------------------------------------------

Freezing NCore=2 chemical core electrons
MP2 will be done in the AO integral direct mode
The Q1-step will be done using symmetric double matrices
Dimension of the basis                    ...   43
Memory devoted for MP2                    ... 8000 MB   
Memory needed for all in one shot         ...    1 MB
Number of MOs that can be treated together... 25776      
MP2 density construction                  ... relaxed
The MP2 gradient is requested => amplitudes will be stored on disk
Total number of MOs              ...    4
Number of MOs treated per batch  ...    1 
Number of batches necessary      ...    1 
OPERATORS   0/  0 PASS   0
-----------------------------------------------
 MP2 CORRELATION ENERGY   :     -0.250504534 Eh
-----------------------------------------------


---------------------
MP2 DENSITY FORMATION
---------------------

Completing the external part of the density      ... done
Storing the unrelaxed density                    ... done

Calculating G(D)                                 ... done
Completing the Lagrangian                        ... done
Solving the Z-vector equations                   ... 

------------------------------------------------------------------------------
                           ORCA CP-SCF CALCULATION
------------------------------------------------------------------------------

Input orbitals are from        ... 140h2o.sphere.gfn2.md.500k.prod1.3h2o.dset.1h2o.dset-orca.engrad-mp2.def2tzvp-14000.to.14026_job27.gbw
Input Perturbation             ... 140h2o.sphere.gfn2.md.500k.prod1.3h2o.dset.1h2o.dset-orca.engrad-mp2.def2tzvp-14000.to.14026_job27.pin.tmp
Wavefunction output            ... 140h2o.sphere.gfn2.md.500k.prod1.3h2o.dset.1h2o.dset-orca.engrad-mp2.def2tzvp-14000.to.14026_job27.pout.tmp
Perturbation mode              ... Real perturbation (singlet)
Solver                         ... POPLE
Max. number of iterations      ... 128
Convergence tolerance          ... 1.000e-08
Integral handling              ... Direct
Number of perturbations        ... 1
Number of operators            ... 1
Orbital ranges used for CP-SCF:
 Operator 0:  Orbitals   0...  4  to   5... 42
Variables per vector in CP-SCF ... 190
Number of vectors sought       ... 1
     CP-SCF ITERATION   0: 
     CP-SCF ITERATION   1:      0.000059404095
     CP-SCF ITERATION   2:      0.000001075571
     CP-SCF ITERATION   3:      0.000000027744
     CP-SCF ITERATION   4:      0.000000000748
                                                 ... done
Finalizing the relaxed density                   ... done
Transforming P to the AO basis                   ... done
Storing the relaxed density                      ... done

------------------------------------
ENERGY WEIGHTED DENSITY FINALIZATION
------------------------------------

Gathering the parts of the W-matrix              ...                                                      done
Forming the Z-density                            ... done
Transforming Z to the AO basis                   ... done
Calculating G(Z)                                 ... done
Finalizing the W-matrix                          ...                                                      done
Transforming W to the AO basis and storing       ... done

                *********************************************
                * UNRELAXED MP2 DENSITY POPULATION ANALYSIS *
                *********************************************

------------------------------------------------------------------------------
                           ORCA POPULATION ANALYSIS
------------------------------------------------------------------------------
Input electron density              ... 140h2o.sphere.gfn2.md.500k.prod1.3h2o.dset.1h2o.dset-orca.engrad-mp2.def2tzvp-14000.to.14026_job27.pmp2ur
BaseName (.gbw .S,...)              ... 140h2o.sphere.gfn2.md.500k.prod1.3h2o.dset.1h2o.dset-orca.engrad-mp2.def2tzvp-14000.to.14026_job27

                    ********************************
                    * MULLIKEN POPULATION ANALYSIS *
                    ********************************

-----------------------
MULLIKEN ATOMIC CHARGES
-----------------------
   0 O :   -0.678982
   1 H :    0.349307
   2 H :    0.329675
Sum of atomic charges:   -0.0000000

--------------------------------
MULLIKEN REDUCED ORBITAL CHARGES
--------------------------------
  0 O s       :     3.768428  s :     3.768428
      pz      :     1.511583  p :     4.856150
      px      :     1.782163
      py      :     1.562404
      dz2     :     0.016841  d :     0.049891
      dxz     :     0.006708
      dyz     :     0.007152
      dx2y2   :     0.006772
      dxy     :     0.012417
      f0      :     0.000761  f :     0.004513
      f+1     :     0.000453
      f-1     :     0.000945
      f+2     :     0.000454
      f-2     :     0.000470
      f+3     :     0.000920
      f-3     :     0.000509
  1 H s       :     0.601706  s :     0.601706
      pz      :     0.011646  p :     0.048987
      px      :     0.018152
      py      :     0.019190
  2 H s       :     0.613172  s :     0.613172
      pz      :     0.022922  p :     0.057153
      px      :     0.017698
      py      :     0.016533


                     *******************************
                     * LOEWDIN POPULATION ANALYSIS *
                     *******************************

----------------------
LOEWDIN ATOMIC CHARGES
----------------------
   0 O :   -0.258015
   1 H :    0.153179
   2 H :    0.104836

-------------------------------
LOEWDIN REDUCED ORBITAL CHARGES
-------------------------------
  0 O s       :     3.388674  s :     3.388674
      pz      :     1.526808  p :     4.803079
      px      :     1.735455
      py      :     1.540817
      dz2     :     0.024195  d :     0.060757
      dxz     :     0.005424
      dyz     :     0.008544
      dx2y2   :     0.006582
      dxy     :     0.016013
      f0      :     0.001140  f :     0.005505
      f+1     :     0.000547
      f-1     :     0.001353
      f+2     :     0.000451
      f-2     :     0.000410
      f+3     :     0.001158
      f-3     :     0.000445
  1 H s       :     0.675342  s :     0.675342
      pz      :     0.033478  p :     0.171480
      px      :     0.063613
      py      :     0.074389
  2 H s       :     0.693165  s :     0.693165
      pz      :     0.094527  p :     0.201999
      px      :     0.055421
      py      :     0.052051


                      *****************************
                      * MAYER POPULATION ANALYSIS *
                      *****************************

  NA   - Mulliken gross atomic population
  ZA   - Total nuclear charge
  QA   - Mulliken gross atomic charge
  VA   - Mayer's total valence
  BVA  - Mayer's bonded valence
  FA   - Mayer's free valence

  ATOM       NA         ZA         QA         VA         BVA        FA
  0 O      8.6790     8.0000    -0.6790     2.0877     1.7216     0.3661
  1 H      0.6507     1.0000     0.3493     0.8994     0.8564     0.0430
  2 H      0.6703     1.0000     0.3297     0.9182     0.8784     0.0398

  Mayer bond orders larger than 0.100000
B(  0-O ,  1-H ) :   0.8498 B(  0-O ,  2-H ) :   0.8718 


                *******************************************
                * RELAXED MP2 DENSITY POPULATION ANALYSIS *
                *******************************************

------------------------------------------------------------------------------
                           ORCA POPULATION ANALYSIS
------------------------------------------------------------------------------
Input electron density              ... 140h2o.sphere.gfn2.md.500k.prod1.3h2o.dset.1h2o.dset-orca.engrad-mp2.def2tzvp-14000.to.14026_job27.pmp2re
BaseName (.gbw .S,...)              ... 140h2o.sphere.gfn2.md.500k.prod1.3h2o.dset.1h2o.dset-orca.engrad-mp2.def2tzvp-14000.to.14026_job27

                    ********************************
                    * MULLIKEN POPULATION ANALYSIS *
                    ********************************

-----------------------
MULLIKEN ATOMIC CHARGES
-----------------------
   0 O :   -0.667518
   1 H :    0.343500
   2 H :    0.324018
Sum of atomic charges:   -0.0000000

--------------------------------
MULLIKEN REDUCED ORBITAL CHARGES
--------------------------------
  0 O s       :     3.769236  s :     3.769236
      pz      :     1.507970  p :     4.846060
      px      :     1.779145
      py      :     1.558944
      dz2     :     0.015501  d :     0.047809
      dxz     :     0.006834
      dyz     :     0.007027
      dx2y2   :     0.006775
      dxy     :     0.011672
      f0      :     0.000732  f :     0.004413
      f+1     :     0.000448
      f-1     :     0.000910
      f+2     :     0.000452
      f-2     :     0.000470
      f+3     :     0.000895
      f-3     :     0.000507
  1 H s       :     0.606693  s :     0.606693
      pz      :     0.012357  p :     0.049807
      px      :     0.018570
      py      :     0.018880
  2 H s       :     0.617976  s :     0.617976
      pz      :     0.022411  p :     0.058005
      px      :     0.018582
      py      :     0.017013


                     *******************************
                     * LOEWDIN POPULATION ANALYSIS *
                     *******************************

----------------------
LOEWDIN ATOMIC CHARGES
----------------------
   0 O :   -0.261684
   1 H :    0.155020
   2 H :    0.106664

-------------------------------
LOEWDIN REDUCED ORBITAL CHARGES
-------------------------------
  0 O s       :     3.389551  s :     3.389551
      pz      :     1.528916  p :     4.807282
      px      :     1.735362
      py      :     1.543004
      dz2     :     0.023409  d :     0.059345
      dxz     :     0.005465
      dyz     :     0.008329
      dx2y2   :     0.006564
      dxy     :     0.015578
      f0      :     0.001132  f :     0.005505
      f+1     :     0.000545
      f-1     :     0.001353
      f+2     :     0.000453
      f-2     :     0.000412
      f+3     :     0.001164
      f-3     :     0.000445
  1 H s       :     0.673436  s :     0.673436
      pz      :     0.033953  p :     0.171544
      px      :     0.063854
      py      :     0.073737
  2 H s       :     0.691609  s :     0.691609
      pz      :     0.093744  p :     0.201727
      px      :     0.055950
      py      :     0.052033


                      *****************************
                      * MAYER POPULATION ANALYSIS *
                      *****************************

  NA   - Mulliken gross atomic population
  ZA   - Total nuclear charge
  QA   - Mulliken gross atomic charge
  VA   - Mayer's total valence
  BVA  - Mayer's bonded valence
  FA   - Mayer's free valence

  ATOM       NA         ZA         QA         VA         BVA        FA
  0 O      8.6675     8.0000    -0.6675     2.0931     1.7306     0.3625
  1 H      0.6565     1.0000     0.3435     0.9041     0.8609     0.0432
  2 H      0.6760     1.0000     0.3240     0.9226     0.8828     0.0398

  Mayer bond orders larger than 0.100000
B(  0-O ,  1-H ) :   0.8544 B(  0-O ,  2-H ) :   0.8763 


----------------------------------
MP2 DERIVATIVE INTEGRAL GENERATION
----------------------------------


Input Wavefunction Amplitudes       ... 140h2o.sphere.gfn2.md.500k.prod1.3h2o.dset.1h2o.dset-orca.engrad-mp2.def2tzvp-14000.to.14026_job27.mp2tsaa.tmp
Input Correlated Electron Density   ... 140h2o.sphere.gfn2.md.500k.prod1.3h2o.dset.1h2o.dset-orca.engrad-mp2.def2tzvp-14000.to.14026_job27.pmp2re
Input Energy Weighted Density       ... 140h2o.sphere.gfn2.md.500k.prod1.3h2o.dset.1h2o.dset-orca.engrad-mp2.def2tzvp-14000.to.14026_job27.wmp2.tmp
Input SCF Electron Density          ... 140h2o.sphere.gfn2.md.500k.prod1.3h2o.dset.1h2o.dset-orca.engrad-mp2.def2tzvp-14000.to.14026_job27.scfp

One-Electron Terms    ...
                        ... One-Electron Terms done
Prescreening matrices              ... done

Batch handling in the gradient evaluation:
Memory available                      ... 8000.0 MB
Memory per occupied orbital in Q2     ...    0.1 MB
Memory per occupied orbital in Q3     ...    0.0 MB
Total memory requirement per |i>      ...    0.1 MB
Max. Number of orbitals possible      ... 110341
Number of orbitals treated per batch  ...      4
Number of batches to be done          ...      1
Batch   0: i=    1 ...     4

---------------------------------------
MP2 TOTAL ENERGY:      -76.305838821 Eh
---------------------------------------

The final MP2 gradient
  0:   0.01009511   0.01622257   0.09821923
  1:  -0.00884152   0.01008340  -0.00619116
  2:  -0.00125359  -0.02630597  -0.09202807

-----------------------------------
NORM OF THE MP2 GRADIENT:  0.139259
-----------------------------------

-------------------------   --------------------
FINAL SINGLE POINT ENERGY       -76.305838821078
-------------------------   --------------------


                            ***************************************
                            *     ORCA property calculations      *
                            ***************************************

                                    ---------------------
                                    Active property flags
                                    ---------------------
   (+) Dipole Moment


------------------------------------------------------------------------------
                       ORCA ELECTRIC PROPERTIES CALCULATION
------------------------------------------------------------------------------

Dipole Moment Calculation                       ... on
Quadrupole Moment Calculation                   ... off
Polarizability Calculation                      ... off
GBWName                                         ... 140h2o.sphere.gfn2.md.500k.prod1.3h2o.dset.1h2o.dset-orca.engrad-mp2.def2tzvp-14000.to.14026_job27.gbw
Electron density file                           ... 140h2o.sphere.gfn2.md.500k.prod1.3h2o.dset.1h2o.dset-orca.engrad-mp2.def2tzvp-14000.to.14026_job27.scfp
The origin for moment calculation is the CENTER OF MASS  = ( 0.000008, -0.000007  0.000011)

-------------
DIPOLE MOMENT
-------------
                                X             Y             Z
Electronic contribution:     -0.04031       0.04120      -0.04390
Nuclear contribution   :      0.42958      -0.38922       0.63184
                        -----------------------------------------
Total Dipole Moment    :      0.38927      -0.34802       0.58794
                        -----------------------------------------
Magnitude (a.u.)       :      0.78633
Magnitude (Debye)      :      1.99869



--------------------
Rotational spectrum 
--------------------
 
Rotational constants in cm-1:    35.771129    14.492655    10.313960 
Rotational constants in MHz : 1072391.477124 434478.866537 309204.727152 

 Dipole components along the rotational axes: 
x,y,z [a.u.] :    -0.077415     0.782509     0.000001 
x,y,z [Debye]:    -0.196774     1.988981     0.000002 

 

                         *** MP2 UNRELAXED DENSITY ***

------------------------------------------------------------------------------
                       ORCA ELECTRIC PROPERTIES CALCULATION
------------------------------------------------------------------------------

Dipole Moment Calculation                       ... on
Quadrupole Moment Calculation                   ... off
Polarizability Calculation                      ... off
GBWName                                         ... 140h2o.sphere.gfn2.md.500k.prod1.3h2o.dset.1h2o.dset-orca.engrad-mp2.def2tzvp-14000.to.14026_job27.gbw
Electron density file                           ... 140h2o.sphere.gfn2.md.500k.prod1.3h2o.dset.1h2o.dset-orca.engrad-mp2.def2tzvp-14000.to.14026_job27.pmp2ur
The origin for moment calculation is the CENTER OF MASS  = ( 0.000008, -0.000007  0.000011)

-------------
DIPOLE MOMENT
-------------
                                X             Y             Z
Electronic contribution:     -0.04402       0.04491      -0.04823
Nuclear contribution   :      0.42958      -0.38922       0.63184
                        -----------------------------------------
Total Dipole Moment    :      0.38556      -0.34432       0.58361
                        -----------------------------------------
Magnitude (a.u.)       :      0.77962
Magnitude (Debye)      :      1.98164



--------------------
Rotational spectrum 
--------------------
 
Rotational constants in cm-1:    35.771129    14.492655    10.313960 
Rotational constants in MHz : 1072391.477124 434478.866537 309204.727152 

 Dipole components along the rotational axes: 
x,y,z [a.u.] :    -0.075683     0.775940     0.000001 
x,y,z [Debye]:    -0.192371     1.972284     0.000002 

 

                           *** MP2 RELAXED DENSITY ***

------------------------------------------------------------------------------
                       ORCA ELECTRIC PROPERTIES CALCULATION
------------------------------------------------------------------------------

Dipole Moment Calculation                       ... on
Quadrupole Moment Calculation                   ... off
Polarizability Calculation                      ... off
GBWName                                         ... 140h2o.sphere.gfn2.md.500k.prod1.3h2o.dset.1h2o.dset-orca.engrad-mp2.def2tzvp-14000.to.14026_job27.gbw
Electron density file                           ... 140h2o.sphere.gfn2.md.500k.prod1.3h2o.dset.1h2o.dset-orca.engrad-mp2.def2tzvp-14000.to.14026_job27.pmp2re
The origin for moment calculation is the CENTER OF MASS  = ( 0.000008, -0.000007  0.000011)

-------------
DIPOLE MOMENT
-------------
                                X             Y             Z
Electronic contribution:     -0.04714       0.04754      -0.05345
Nuclear contribution   :      0.42958      -0.38922       0.63184
                        -----------------------------------------
Total Dipole Moment    :      0.38244      -0.34168       0.57839
                        -----------------------------------------
Magnitude (a.u.)       :      0.77300
Magnitude (Debye)      :      1.96482



--------------------
Rotational spectrum 
--------------------
 
Rotational constants in cm-1:    35.771129    14.492655    10.313960 
Rotational constants in MHz : 1072391.477124 434478.866537 309204.727152 

 Dipole components along the rotational axes: 
x,y,z [a.u.] :    -0.075457     0.769313     0.000001 
x,y,z [Debye]:    -0.191796     1.955439     0.000002 

 

Timings for individual modules:

Sum of individual times         ...        4.780 sec (=   0.080 min)
GTO integral calculation        ...        0.934 sec (=   0.016 min)  19.5 %
SCF iterations                  ...        2.044 sec (=   0.034 min)  42.8 %
MP2 module                      ...        1.802 sec (=   0.030 min)  37.7 %



                             ****ORCA TERMINATED NORMALLY****
TOTAL RUN TIME: 0 days 0 hours 2 minutes 46 seconds 153 msec
