
                                 *****************
                                 * O   R   C   A *
                                 *****************

           --- An Ab Initio, DFT and Semiempirical electronic structure package ---

                  #######################################################
                  #                        -***-                        #
                  #          Department of theory and spectroscopy      #
                  #               Directorship: Frank Neese             #
                  #        Max Planck Institute fuer Kohlenforschung    #
                  #                Kaiser Wilhelm Platz 1               #
                  #                 D-45470 Muelheim/Ruhr               #
                  #                      Germany                        #
                  #                                                     #
                  #                  All rights reserved                #
                  #                        -***-                        #
                  #######################################################


                         Program Version 4.2.0 -  RELEASE  -


 With contributions from (in alphabetic order):
   Daniel Aravena         : Magnetic Suceptibility
   Michael Atanasov       : Ab Initio Ligand Field Theory (pilot matlab implementation)
   Alexander A. Auer      : GIAO ZORA, VPT2
   Ute Becker             : Parallelization
   Giovanni Bistoni       : ED, misc. LED, open-shell LED, HFLED
   Martin Brehm           : Molecular dynamics
   Dmytro Bykov           : SCF Hessian
   Vijay G. Chilkuri      : MRCI spin determinant printing, contributions to CSF-ICE
   Dipayan Datta          : RHF DLPNO-CCSD density
   Achintya Kumar Dutta   : EOM-CC, STEOM-CC
   Dmitry Ganyushin       : Spin-Orbit,Spin-Spin,Magnetic field MRCI
   Miquel Garcia          : C-PCM Hessian, Gaussian charge scheme
   Yang Guo               : DLPNO-NEVPT2, CIM, IAO-localization
   Andreas Hansen         : Spin unrestricted coupled pair/coupled cluster methods
   Benjamin Helmich-Paris : CASSCF linear response (MC-RPA)
   Lee Huntington         : MR-EOM, pCC
   Robert Izsak           : Overlap fitted RIJCOSX, COSX-SCS-MP3, EOM
   Christian Kollmar      : KDIIS, OOCD, Brueckner-CCSD(T), CCSD density
   Simone Kossmann        : Meta GGA functionals, TD-DFT gradient, OOMP2, MP2 Hessian
   Martin Krupicka        : AUTO-CI
   Lucas Lang             : DCDCAS
   Dagmar Lenk            : GEPOL surface, SMD
   Dimitrios Liakos       : Extrapolation schemes; Compound Job, initial MDCI parallelization
   Dimitrios Manganas     : Further ROCIS development; embedding schemes
   Dimitrios Pantazis     : SARC Basis sets
   Taras Petrenko         : DFT Hessian,TD-DFT gradient, ASA, ECA, R-Raman, ABS, FL, XAS/XES, NRVS
   Peter Pinski           : DLPNO-MP2, DLPNO-MP2 Gradient
   Christoph Reimann      : Effective Core Potentials
   Marius Retegan         : Local ZFS, SOC
   Christoph Riplinger    : Optimizer, TS searches, QM/MM, DLPNO-CCSD(T), (RO)-DLPNO pert. Triples
   Tobias Risthaus        : Range-separated hybrids, TD-DFT gradient, RPA, STAB
   Michael Roemelt        : Original ROCIS implementation
   Masaaki Saitow         : Open-shell DLPNO-CCSD energy and density
   Barbara Sandhoefer     : DKH picture change effects
   Avijit Sen             : IP-ROCIS
   Kantharuban Sivalingam : CASSCF convergence, NEVPT2, FIC-MRCI
   Bernardo de Souza      : ESD, SOC TD-DFT
   Georgi Stoychev        : AutoAux, RI-MP2 NMR
   Willem Van den Heuvel  : Paramagnetic NMR
   Boris Wezisla          : Elementary symmetry handling
   Frank Wennmohs         : Technical directorship


 We gratefully acknowledge several colleagues who have allowed us to
 interface, adapt or use parts of their codes:
   Stefan Grimme, W. Hujo, H. Kruse,             : VdW corrections, initial TS optimization,
                  C. Bannwarth                     DFT functionals, gCP, sTDA/sTD-DF
   Ed Valeev, F. Pavosevic, A. Kumar             : LibInt (2-el integral package), F12 methods
   Garnet Chan, S. Sharma, J. Yang, R. Olivares  : DMRG
   Ulf Ekstrom                                   : XCFun DFT Library
   Mihaly Kallay                                 : mrcc  (arbitrary order and MRCC methods)
   Andreas Klamt, Michael Diedenhofen            : otool_cosmo (COSMO solvation model)
   Jiri Pittner, Ondrej Demel                    : Mk-CCSD
   Frank Weinhold                                : gennbo (NPA and NBO analysis)
   Christopher J. Cramer and Donald G. Truhlar   : smd solvation model
   Lars Goerigk                                  : TD-DFT with DH, B97 family of functionals
   V. Asgeirsson, H. Jonsson                     : NEB implementation
   FAccTs GmbH                                   : IRC, NEB, NEB-TS, Multilevel, MM, QM/MM, CI optimization
   S Lehtola, MJT Oliveira, MAL Marques          : LibXC Library


 Your calculation uses the libint2 library for the computation of 2-el integrals
 For citations please refer to: http://libint.valeyev.net

 Your ORCA version has been built with support for libXC version: 4.2.3
 For citations please refer to: https://tddft.org/programs/libxc/

 This ORCA versions uses:
   CBLAS   interface :  Fast vector & matrix operations
   LAPACKE interface :  Fast linear algebra routines
   SCALAPACK package :  Parallel linear algebra routines


----- Orbital basis set information -----
Your calculation utilizes the basis: def2-TZVP
   F. Weigend and R. Ahlrichs, Phys. Chem. Chem. Phys. 7, 3297 (2005).

================================================================================
                                        WARNINGS
                       Please study these warnings very carefully!
================================================================================


WARNING: The frozen-core approximation for MP2-gradient calculations is turned on by default.

INFO   : the flag for use of LIBINT has been found!

----- Orbital basis set information -----
Your calculation utilizes the basis: def2-TZVP
   F. Weigend and R. Ahlrichs, Phys. Chem. Chem. Phys. 7, 3297 (2005).

================================================================================
                                        WARNINGS
                       Please study these warnings very carefully!
================================================================================


WARNING: The frozen-core approximation for MP2-gradient calculations is turned on by default.

INFO   : the flag for use of LIBINT has been found!

----- Orbital basis set information -----
Your calculation utilizes the basis: def2-TZVP
   F. Weigend and R. Ahlrichs, Phys. Chem. Chem. Phys. 7, 3297 (2005).

================================================================================
                                        WARNINGS
                       Please study these warnings very carefully!
================================================================================


WARNING: The frozen-core approximation for MP2-gradient calculations is turned on by default.

INFO   : the flag for use of LIBINT has been found!

----- Orbital basis set information -----
Your calculation utilizes the basis: def2-TZVP
   F. Weigend and R. Ahlrichs, Phys. Chem. Chem. Phys. 7, 3297 (2005).

================================================================================
                                        WARNINGS
                       Please study these warnings very carefully!
================================================================================


WARNING: The frozen-core approximation for MP2-gradient calculations is turned on by default.

INFO   : the flag for use of LIBINT has been found!

----- Orbital basis set information -----
Your calculation utilizes the basis: def2-TZVP
   F. Weigend and R. Ahlrichs, Phys. Chem. Chem. Phys. 7, 3297 (2005).

================================================================================
                                        WARNINGS
                       Please study these warnings very carefully!
================================================================================


WARNING: The frozen-core approximation for MP2-gradient calculations is turned on by default.

INFO   : the flag for use of LIBINT has been found!

----- Orbital basis set information -----
Your calculation utilizes the basis: def2-TZVP
   F. Weigend and R. Ahlrichs, Phys. Chem. Chem. Phys. 7, 3297 (2005).

================================================================================
                                        WARNINGS
                       Please study these warnings very carefully!
================================================================================


WARNING: The frozen-core approximation for MP2-gradient calculations is turned on by default.

INFO   : the flag for use of LIBINT has been found!

----- Orbital basis set information -----
Your calculation utilizes the basis: def2-TZVP
   F. Weigend and R. Ahlrichs, Phys. Chem. Chem. Phys. 7, 3297 (2005).

================================================================================
                                        WARNINGS
                       Please study these warnings very carefully!
================================================================================


WARNING: The frozen-core approximation for MP2-gradient calculations is turned on by default.

INFO   : the flag for use of LIBINT has been found!

----- Orbital basis set information -----
Your calculation utilizes the basis: def2-TZVP
   F. Weigend and R. Ahlrichs, Phys. Chem. Chem. Phys. 7, 3297 (2005).

================================================================================
                                        WARNINGS
                       Please study these warnings very carefully!
================================================================================


WARNING: The frozen-core approximation for MP2-gradient calculations is turned on by default.

INFO   : the flag for use of LIBINT has been found!

----- Orbital basis set information -----
Your calculation utilizes the basis: def2-TZVP
   F. Weigend and R. Ahlrichs, Phys. Chem. Chem. Phys. 7, 3297 (2005).

================================================================================
                                        WARNINGS
                       Please study these warnings very carefully!
================================================================================


WARNING: The frozen-core approximation for MP2-gradient calculations is turned on by default.

INFO   : the flag for use of LIBINT has been found!

----- Orbital basis set information -----
Your calculation utilizes the basis: def2-TZVP
   F. Weigend and R. Ahlrichs, Phys. Chem. Chem. Phys. 7, 3297 (2005).

================================================================================
                                        WARNINGS
                       Please study these warnings very carefully!
================================================================================


WARNING: The frozen-core approximation for MP2-gradient calculations is turned on by default.

INFO   : the flag for use of LIBINT has been found!

----- Orbital basis set information -----
Your calculation utilizes the basis: def2-TZVP
   F. Weigend and R. Ahlrichs, Phys. Chem. Chem. Phys. 7, 3297 (2005).

================================================================================
                                        WARNINGS
                       Please study these warnings very carefully!
================================================================================


WARNING: The frozen-core approximation for MP2-gradient calculations is turned on by default.

INFO   : the flag for use of LIBINT has been found!

----- Orbital basis set information -----
Your calculation utilizes the basis: def2-TZVP
   F. Weigend and R. Ahlrichs, Phys. Chem. Chem. Phys. 7, 3297 (2005).

================================================================================
                                        WARNINGS
                       Please study these warnings very carefully!
================================================================================


WARNING: The frozen-core approximation for MP2-gradient calculations is turned on by default.

INFO   : the flag for use of LIBINT has been found!

----- Orbital basis set information -----
Your calculation utilizes the basis: def2-TZVP
   F. Weigend and R. Ahlrichs, Phys. Chem. Chem. Phys. 7, 3297 (2005).

================================================================================
                                        WARNINGS
                       Please study these warnings very carefully!
================================================================================


WARNING: The frozen-core approximation for MP2-gradient calculations is turned on by default.

INFO   : the flag for use of LIBINT has been found!

----- Orbital basis set information -----
Your calculation utilizes the basis: def2-TZVP
   F. Weigend and R. Ahlrichs, Phys. Chem. Chem. Phys. 7, 3297 (2005).

================================================================================
                                        WARNINGS
                       Please study these warnings very carefully!
================================================================================


WARNING: The frozen-core approximation for MP2-gradient calculations is turned on by default.

INFO   : the flag for use of LIBINT has been found!

----- Orbital basis set information -----
Your calculation utilizes the basis: def2-TZVP
   F. Weigend and R. Ahlrichs, Phys. Chem. Chem. Phys. 7, 3297 (2005).

================================================================================
                                        WARNINGS
                       Please study these warnings very carefully!
================================================================================


WARNING: The frozen-core approximation for MP2-gradient calculations is turned on by default.

INFO   : the flag for use of LIBINT has been found!

----- Orbital basis set information -----
Your calculation utilizes the basis: def2-TZVP
   F. Weigend and R. Ahlrichs, Phys. Chem. Chem. Phys. 7, 3297 (2005).

================================================================================
                                        WARNINGS
                       Please study these warnings very carefully!
================================================================================


WARNING: The frozen-core approximation for MP2-gradient calculations is turned on by default.

INFO   : the flag for use of LIBINT has been found!

----- Orbital basis set information -----
Your calculation utilizes the basis: def2-TZVP
   F. Weigend and R. Ahlrichs, Phys. Chem. Chem. Phys. 7, 3297 (2005).

================================================================================
                                        WARNINGS
                       Please study these warnings very carefully!
================================================================================


WARNING: The frozen-core approximation for MP2-gradient calculations is turned on by default.

INFO   : the flag for use of LIBINT has been found!

----- Orbital basis set information -----
Your calculation utilizes the basis: def2-TZVP
   F. Weigend and R. Ahlrichs, Phys. Chem. Chem. Phys. 7, 3297 (2005).

================================================================================
                                        WARNINGS
                       Please study these warnings very carefully!
================================================================================


WARNING: The frozen-core approximation for MP2-gradient calculations is turned on by default.

INFO   : the flag for use of LIBINT has been found!

----- Orbital basis set information -----
Your calculation utilizes the basis: def2-TZVP
   F. Weigend and R. Ahlrichs, Phys. Chem. Chem. Phys. 7, 3297 (2005).

================================================================================
                                        WARNINGS
                       Please study these warnings very carefully!
================================================================================


WARNING: The frozen-core approximation for MP2-gradient calculations is turned on by default.

INFO   : the flag for use of LIBINT has been found!

----- Orbital basis set information -----
Your calculation utilizes the basis: def2-TZVP
   F. Weigend and R. Ahlrichs, Phys. Chem. Chem. Phys. 7, 3297 (2005).

================================================================================
                                        WARNINGS
                       Please study these warnings very carefully!
================================================================================


WARNING: The frozen-core approximation for MP2-gradient calculations is turned on by default.

INFO   : the flag for use of LIBINT has been found!

----- Orbital basis set information -----
Your calculation utilizes the basis: def2-TZVP
   F. Weigend and R. Ahlrichs, Phys. Chem. Chem. Phys. 7, 3297 (2005).

================================================================================
                                        WARNINGS
                       Please study these warnings very carefully!
================================================================================


WARNING: The frozen-core approximation for MP2-gradient calculations is turned on by default.

INFO   : the flag for use of LIBINT has been found!

----- Orbital basis set information -----
Your calculation utilizes the basis: def2-TZVP
   F. Weigend and R. Ahlrichs, Phys. Chem. Chem. Phys. 7, 3297 (2005).

================================================================================
                                        WARNINGS
                       Please study these warnings very carefully!
================================================================================


WARNING: The frozen-core approximation for MP2-gradient calculations is turned on by default.

INFO   : the flag for use of LIBINT has been found!

----- Orbital basis set information -----
Your calculation utilizes the basis: def2-TZVP
   F. Weigend and R. Ahlrichs, Phys. Chem. Chem. Phys. 7, 3297 (2005).

================================================================================
                                        WARNINGS
                       Please study these warnings very carefully!
================================================================================


WARNING: The frozen-core approximation for MP2-gradient calculations is turned on by default.

INFO   : the flag for use of LIBINT has been found!

----- Orbital basis set information -----
Your calculation utilizes the basis: def2-TZVP
   F. Weigend and R. Ahlrichs, Phys. Chem. Chem. Phys. 7, 3297 (2005).

================================================================================
                                        WARNINGS
                       Please study these warnings very carefully!
================================================================================


WARNING: The frozen-core approximation for MP2-gradient calculations is turned on by default.

INFO   : the flag for use of LIBINT has been found!

----- Orbital basis set information -----
Your calculation utilizes the basis: def2-TZVP
   F. Weigend and R. Ahlrichs, Phys. Chem. Chem. Phys. 7, 3297 (2005).

================================================================================
                                        WARNINGS
                       Please study these warnings very carefully!
================================================================================


WARNING: The frozen-core approximation for MP2-gradient calculations is turned on by default.

INFO   : the flag for use of LIBINT has been found!

----- Orbital basis set information -----
Your calculation utilizes the basis: def2-TZVP
   F. Weigend and R. Ahlrichs, Phys. Chem. Chem. Phys. 7, 3297 (2005).

================================================================================
                                        WARNINGS
                       Please study these warnings very carefully!
================================================================================


WARNING: The frozen-core approximation for MP2-gradient calculations is turned on by default.

INFO   : the flag for use of LIBINT has been found!

----- Orbital basis set information -----
Your calculation utilizes the basis: def2-TZVP
   F. Weigend and R. Ahlrichs, Phys. Chem. Chem. Phys. 7, 3297 (2005).

================================================================================
                                        WARNINGS
                       Please study these warnings very carefully!
================================================================================


WARNING: The frozen-core approximation for MP2-gradient calculations is turned on by default.

INFO   : the flag for use of LIBINT has been found!

----- Orbital basis set information -----
Your calculation utilizes the basis: def2-TZVP
   F. Weigend and R. Ahlrichs, Phys. Chem. Chem. Phys. 7, 3297 (2005).

================================================================================
                                        WARNINGS
                       Please study these warnings very carefully!
================================================================================


WARNING: The frozen-core approximation for MP2-gradient calculations is turned on by default.

INFO   : the flag for use of LIBINT has been found!

----- Orbital basis set information -----
Your calculation utilizes the basis: def2-TZVP
   F. Weigend and R. Ahlrichs, Phys. Chem. Chem. Phys. 7, 3297 (2005).

================================================================================
                                        WARNINGS
                       Please study these warnings very carefully!
================================================================================


WARNING: The frozen-core approximation for MP2-gradient calculations is turned on by default.

INFO   : the flag for use of LIBINT has been found!

----- Orbital basis set information -----
Your calculation utilizes the basis: def2-TZVP
   F. Weigend and R. Ahlrichs, Phys. Chem. Chem. Phys. 7, 3297 (2005).

================================================================================
                                        WARNINGS
                       Please study these warnings very carefully!
================================================================================


WARNING: The frozen-core approximation for MP2-gradient calculations is turned on by default.

INFO   : the flag for use of LIBINT has been found!

----- Orbital basis set information -----
Your calculation utilizes the basis: def2-TZVP
   F. Weigend and R. Ahlrichs, Phys. Chem. Chem. Phys. 7, 3297 (2005).

================================================================================
                                        WARNINGS
                       Please study these warnings very carefully!
================================================================================


WARNING: The frozen-core approximation for MP2-gradient calculations is turned on by default.

INFO   : the flag for use of LIBINT has been found!

----- Orbital basis set information -----
Your calculation utilizes the basis: def2-TZVP
   F. Weigend and R. Ahlrichs, Phys. Chem. Chem. Phys. 7, 3297 (2005).

================================================================================
                                        WARNINGS
                       Please study these warnings very carefully!
================================================================================


WARNING: The frozen-core approximation for MP2-gradient calculations is turned on by default.

INFO   : the flag for use of LIBINT has been found!

----- Orbital basis set information -----
Your calculation utilizes the basis: def2-TZVP
   F. Weigend and R. Ahlrichs, Phys. Chem. Chem. Phys. 7, 3297 (2005).

================================================================================
                                        WARNINGS
                       Please study these warnings very carefully!
================================================================================


WARNING: The frozen-core approximation for MP2-gradient calculations is turned on by default.

INFO   : the flag for use of LIBINT has been found!

----- Orbital basis set information -----
Your calculation utilizes the basis: def2-TZVP
   F. Weigend and R. Ahlrichs, Phys. Chem. Chem. Phys. 7, 3297 (2005).

================================================================================
                                        WARNINGS
                       Please study these warnings very carefully!
================================================================================


WARNING: The frozen-core approximation for MP2-gradient calculations is turned on by default.

INFO   : the flag for use of LIBINT has been found!

----- Orbital basis set information -----
Your calculation utilizes the basis: def2-TZVP
   F. Weigend and R. Ahlrichs, Phys. Chem. Chem. Phys. 7, 3297 (2005).

================================================================================
                                        WARNINGS
                       Please study these warnings very carefully!
================================================================================


WARNING: The frozen-core approximation for MP2-gradient calculations is turned on by default.

INFO   : the flag for use of LIBINT has been found!

----- Orbital basis set information -----
Your calculation utilizes the basis: def2-TZVP
   F. Weigend and R. Ahlrichs, Phys. Chem. Chem. Phys. 7, 3297 (2005).

================================================================================
                                        WARNINGS
                       Please study these warnings very carefully!
================================================================================


WARNING: The frozen-core approximation for MP2-gradient calculations is turned on by default.

INFO   : the flag for use of LIBINT has been found!

----- Orbital basis set information -----
Your calculation utilizes the basis: def2-TZVP
   F. Weigend and R. Ahlrichs, Phys. Chem. Chem. Phys. 7, 3297 (2005).

================================================================================
                                        WARNINGS
                       Please study these warnings very carefully!
================================================================================


WARNING: The frozen-core approximation for MP2-gradient calculations is turned on by default.

INFO   : the flag for use of LIBINT has been found!

----- Orbital basis set information -----
Your calculation utilizes the basis: def2-TZVP
   F. Weigend and R. Ahlrichs, Phys. Chem. Chem. Phys. 7, 3297 (2005).

================================================================================
                                        WARNINGS
                       Please study these warnings very carefully!
================================================================================


WARNING: The frozen-core approximation for MP2-gradient calculations is turned on by default.

INFO   : the flag for use of LIBINT has been found!

----- Orbital basis set information -----
Your calculation utilizes the basis: def2-TZVP
   F. Weigend and R. Ahlrichs, Phys. Chem. Chem. Phys. 7, 3297 (2005).

================================================================================
                                        WARNINGS
                       Please study these warnings very carefully!
================================================================================


WARNING: The frozen-core approximation for MP2-gradient calculations is turned on by default.

INFO   : the flag for use of LIBINT has been found!

----- Orbital basis set information -----
Your calculation utilizes the basis: def2-TZVP
   F. Weigend and R. Ahlrichs, Phys. Chem. Chem. Phys. 7, 3297 (2005).

================================================================================
                                        WARNINGS
                       Please study these warnings very carefully!
================================================================================


WARNING: The frozen-core approximation for MP2-gradient calculations is turned on by default.

INFO   : the flag for use of LIBINT has been found!

----- Orbital basis set information -----
Your calculation utilizes the basis: def2-TZVP
   F. Weigend and R. Ahlrichs, Phys. Chem. Chem. Phys. 7, 3297 (2005).

================================================================================
                                        WARNINGS
                       Please study these warnings very carefully!
================================================================================


WARNING: The frozen-core approximation for MP2-gradient calculations is turned on by default.

INFO   : the flag for use of LIBINT has been found!

----- Orbital basis set information -----
Your calculation utilizes the basis: def2-TZVP
   F. Weigend and R. Ahlrichs, Phys. Chem. Chem. Phys. 7, 3297 (2005).

================================================================================
                                        WARNINGS
                       Please study these warnings very carefully!
================================================================================


WARNING: The frozen-core approximation for MP2-gradient calculations is turned on by default.

INFO   : the flag for use of LIBINT has been found!

----- Orbital basis set information -----
Your calculation utilizes the basis: def2-TZVP
   F. Weigend and R. Ahlrichs, Phys. Chem. Chem. Phys. 7, 3297 (2005).

================================================================================
                                        WARNINGS
                       Please study these warnings very carefully!
================================================================================


WARNING: The frozen-core approximation for MP2-gradient calculations is turned on by default.

INFO   : the flag for use of LIBINT has been found!

----- Orbital basis set information -----
Your calculation utilizes the basis: def2-TZVP
   F. Weigend and R. Ahlrichs, Phys. Chem. Chem. Phys. 7, 3297 (2005).

================================================================================
                                        WARNINGS
                       Please study these warnings very carefully!
================================================================================


WARNING: The frozen-core approximation for MP2-gradient calculations is turned on by default.

INFO   : the flag for use of LIBINT has been found!

----- Orbital basis set information -----
Your calculation utilizes the basis: def2-TZVP
   F. Weigend and R. Ahlrichs, Phys. Chem. Chem. Phys. 7, 3297 (2005).

================================================================================
                                        WARNINGS
                       Please study these warnings very carefully!
================================================================================


WARNING: The frozen-core approximation for MP2-gradient calculations is turned on by default.

INFO   : the flag for use of LIBINT has been found!

----- Orbital basis set information -----
Your calculation utilizes the basis: def2-TZVP
   F. Weigend and R. Ahlrichs, Phys. Chem. Chem. Phys. 7, 3297 (2005).

================================================================================
                                        WARNINGS
                       Please study these warnings very carefully!
================================================================================


WARNING: The frozen-core approximation for MP2-gradient calculations is turned on by default.

INFO   : the flag for use of LIBINT has been found!

----- Orbital basis set information -----
Your calculation utilizes the basis: def2-TZVP
   F. Weigend and R. Ahlrichs, Phys. Chem. Chem. Phys. 7, 3297 (2005).

================================================================================
                                        WARNINGS
                       Please study these warnings very carefully!
================================================================================


WARNING: The frozen-core approximation for MP2-gradient calculations is turned on by default.

INFO   : the flag for use of LIBINT has been found!

----- Orbital basis set information -----
Your calculation utilizes the basis: def2-TZVP
   F. Weigend and R. Ahlrichs, Phys. Chem. Chem. Phys. 7, 3297 (2005).

================================================================================
                                        WARNINGS
                       Please study these warnings very carefully!
================================================================================


WARNING: The frozen-core approximation for MP2-gradient calculations is turned on by default.

INFO   : the flag for use of LIBINT has been found!

----- Orbital basis set information -----
Your calculation utilizes the basis: def2-TZVP
   F. Weigend and R. Ahlrichs, Phys. Chem. Chem. Phys. 7, 3297 (2005).

================================================================================
                                        WARNINGS
                       Please study these warnings very carefully!
================================================================================


WARNING: The frozen-core approximation for MP2-gradient calculations is turned on by default.

INFO   : the flag for use of LIBINT has been found!

----- Orbital basis set information -----
Your calculation utilizes the basis: def2-TZVP
   F. Weigend and R. Ahlrichs, Phys. Chem. Chem. Phys. 7, 3297 (2005).

================================================================================
                                        WARNINGS
                       Please study these warnings very carefully!
================================================================================


WARNING: The frozen-core approximation for MP2-gradient calculations is turned on by default.

INFO   : the flag for use of LIBINT has been found!

----- Orbital basis set information -----
Your calculation utilizes the basis: def2-TZVP
   F. Weigend and R. Ahlrichs, Phys. Chem. Chem. Phys. 7, 3297 (2005).

================================================================================
                                        WARNINGS
                       Please study these warnings very carefully!
================================================================================


WARNING: The frozen-core approximation for MP2-gradient calculations is turned on by default.

INFO   : the flag for use of LIBINT has been found!

----- Orbital basis set information -----
Your calculation utilizes the basis: def2-TZVP
   F. Weigend and R. Ahlrichs, Phys. Chem. Chem. Phys. 7, 3297 (2005).

================================================================================
                                        WARNINGS
                       Please study these warnings very carefully!
================================================================================


WARNING: The frozen-core approximation for MP2-gradient calculations is turned on by default.

INFO   : the flag for use of LIBINT has been found!

----- Orbital basis set information -----
Your calculation utilizes the basis: def2-TZVP
   F. Weigend and R. Ahlrichs, Phys. Chem. Chem. Phys. 7, 3297 (2005).

================================================================================
                                        WARNINGS
                       Please study these warnings very carefully!
================================================================================


WARNING: The frozen-core approximation for MP2-gradient calculations is turned on by default.

INFO   : the flag for use of LIBINT has been found!

----- Orbital basis set information -----
Your calculation utilizes the basis: def2-TZVP
   F. Weigend and R. Ahlrichs, Phys. Chem. Chem. Phys. 7, 3297 (2005).

================================================================================
                                        WARNINGS
                       Please study these warnings very carefully!
================================================================================


WARNING: The frozen-core approximation for MP2-gradient calculations is turned on by default.

INFO   : the flag for use of LIBINT has been found!

----- Orbital basis set information -----
Your calculation utilizes the basis: def2-TZVP
   F. Weigend and R. Ahlrichs, Phys. Chem. Chem. Phys. 7, 3297 (2005).

================================================================================
                                        WARNINGS
                       Please study these warnings very carefully!
================================================================================


WARNING: The frozen-core approximation for MP2-gradient calculations is turned on by default.

INFO   : the flag for use of LIBINT has been found!

----- Orbital basis set information -----
Your calculation utilizes the basis: def2-TZVP
   F. Weigend and R. Ahlrichs, Phys. Chem. Chem. Phys. 7, 3297 (2005).

================================================================================
                                        WARNINGS
                       Please study these warnings very carefully!
================================================================================


WARNING: The frozen-core approximation for MP2-gradient calculations is turned on by default.

INFO   : the flag for use of LIBINT has been found!

----- Orbital basis set information -----
Your calculation utilizes the basis: def2-TZVP
   F. Weigend and R. Ahlrichs, Phys. Chem. Chem. Phys. 7, 3297 (2005).

================================================================================
                                        WARNINGS
                       Please study these warnings very carefully!
================================================================================


WARNING: The frozen-core approximation for MP2-gradient calculations is turned on by default.

INFO   : the flag for use of LIBINT has been found!

----- Orbital basis set information -----
Your calculation utilizes the basis: def2-TZVP
   F. Weigend and R. Ahlrichs, Phys. Chem. Chem. Phys. 7, 3297 (2005).

================================================================================
                                        WARNINGS
                       Please study these warnings very carefully!
================================================================================


WARNING: The frozen-core approximation for MP2-gradient calculations is turned on by default.

INFO   : the flag for use of LIBINT has been found!

----- Orbital basis set information -----
Your calculation utilizes the basis: def2-TZVP
   F. Weigend and R. Ahlrichs, Phys. Chem. Chem. Phys. 7, 3297 (2005).

================================================================================
                                        WARNINGS
                       Please study these warnings very carefully!
================================================================================


WARNING: The frozen-core approximation for MP2-gradient calculations is turned on by default.

INFO   : the flag for use of LIBINT has been found!

----- Orbital basis set information -----
Your calculation utilizes the basis: def2-TZVP
   F. Weigend and R. Ahlrichs, Phys. Chem. Chem. Phys. 7, 3297 (2005).

================================================================================
                                        WARNINGS
                       Please study these warnings very carefully!
================================================================================


WARNING: The frozen-core approximation for MP2-gradient calculations is turned on by default.

INFO   : the flag for use of LIBINT has been found!

================================================================================
                                       INPUT FILE
================================================================================
NAME = 16h2o.yoo.etal.boat.b.3h2o.dset-orca.engrad-mp2.def2tzvp-500.to.559.inp
|  1> # 16h2o.yoo.etal.boat.b.3h2o.dset-orca.engrad-mp2.def2tzvp-500.to.559
|  2> ! MP2 def2-TZVP EnGrad TightSCF FrozenCore
|  3> 
|  4> %pal
|  5>     nprocs 6
|  6> end
|  7> 
|  8> %maxcore 8000
|  9> 
| 10> %scf
| 11>     ConvForced true
| 12> end
| 13> 
| 14> *xyz 0 1
| 15> O   2.838146000  -2.263536120  -0.138730120
| 16> H   1.899811180  -2.286791770  -0.402796420
| 17> H   2.813410950  -2.051539230   0.809438010
| 18> O  -2.856893130   2.235015450  -0.006053840
| 19> H  -1.950109880   2.266134990   0.348554180
| 20> H  -3.334753900   1.599732010   0.557436650
| 21> O   0.090174750  -1.846110530  -0.580225690
| 22> H  -0.702804930  -2.412943650  -0.634769220
| 23> H   0.031662010  -1.434201840   0.310610750
| 24> *
| 25> 
| 26> 
| 27> $new_job
| 28> 
| 29> # 16h2o.yoo.etal.boat.b.3h2o.dset-orca.engrad-mp2.def2tzvp-500.to.559
| 30> ! MP2 def2-TZVP EnGrad TightSCF FrozenCore
| 31> 
| 32> %pal
| 33>     nprocs 6
| 34> end
| 35> 
| 36> %maxcore 8000
| 37> 
| 38> %scf
| 39>     ConvForced true
| 40> end
| 41> 
| 42> *xyz 0 1
| 43> O   2.838146000  -2.263536120  -0.138730120
| 44> H   1.899811180  -2.286791770  -0.402796420
| 45> H   2.813410950  -2.051539230   0.809438010
| 46> O  -4.238936560   0.123091700   1.259056120
| 47> H  -4.967739430   0.226879490   1.877485830
| 48> H  -3.616055280  -0.530301490   1.674653570
| 49> O   4.267375430  -0.273424570  -1.171620400
| 50> H   3.752967870  -1.067260270  -0.868274570
| 51> H   5.021742090  -0.616076610  -1.659299840
| 52> *
| 53> 
| 54> 
| 55> $new_job
| 56> 
| 57> # 16h2o.yoo.etal.boat.b.3h2o.dset-orca.engrad-mp2.def2tzvp-500.to.559
| 58> ! MP2 def2-TZVP EnGrad TightSCF FrozenCore
| 59> 
| 60> %pal
| 61>     nprocs 6
| 62> end
| 63> 
| 64> %maxcore 8000
| 65> 
| 66> %scf
| 67>     ConvForced true
| 68> end
| 69> 
| 70> *xyz 0 1
| 71> O   2.838146000  -2.263536120  -0.138730120
| 72> H   1.899811180  -2.286791770  -0.402796420
| 73> H   2.813410950  -2.051539230   0.809438010
| 74> O  -4.238936560   0.123091700   1.259056120
| 75> H  -4.967739430   0.226879490   1.877485830
| 76> H  -3.616055280  -0.530301490   1.674653570
| 77> O   0.090174750  -1.846110530  -0.580225690
| 78> H  -0.702804930  -2.412943650  -0.634769220
| 79> H   0.031662010  -1.434201840   0.310610750
| 80> *
| 81> 
| 82> 
| 83> $new_job
| 84> 
| 85> # 16h2o.yoo.etal.boat.b.3h2o.dset-orca.engrad-mp2.def2tzvp-500.to.559
| 86> ! MP2 def2-TZVP EnGrad TightSCF FrozenCore
| 87> 
| 88> %pal
| 89>     nprocs 6
| 90> end
| 91> 
| 92> %maxcore 8000
| 93> 
| 94> %scf
| 95>     ConvForced true
| 96> end
| 97> 
| 98> *xyz 0 1
| 99> O   2.838146000  -2.263536120  -0.138730120
|100> H   1.899811180  -2.286791770  -0.402796420
|101> H   2.813410950  -2.051539230   0.809438010
|102> O   4.267375430  -0.273424570  -1.171620400
|103> H   3.752967870  -1.067260270  -0.868274570
|104> H   5.021742090  -0.616076610  -1.659299840
|105> O   0.090174750  -1.846110530  -0.580225690
|106> H  -0.702804930  -2.412943650  -0.634769220
|107> H   0.031662010  -1.434201840   0.310610750
|108> *
|109> 
|110> 
|111> $new_job
|112> 
|113> # 16h2o.yoo.etal.boat.b.3h2o.dset-orca.engrad-mp2.def2tzvp-500.to.559
|114> ! MP2 def2-TZVP EnGrad TightSCF FrozenCore
|115> 
|116> %pal
|117>     nprocs 6
|118> end
|119> 
|120> %maxcore 8000
|121> 
|122> %scf
|123>     ConvForced true
|124> end
|125> 
|126> *xyz 0 1
|127> O  -2.414228350  -3.052942980  -0.415541590
|128> H  -2.729000630  -3.919664690  -0.687548060
|129> H  -3.034566120  -2.392689920  -0.822159190
|130> O   2.515723360   1.778954740  -2.000857960
|131> H   1.652429200   1.352191620  -2.149488420
|132> H   3.139528900   1.042384330  -1.868032090
|133> O   2.394165620   3.094502760   0.295580090
|134> H   2.635243310   4.021878780   0.214380780
|135> H   2.470452610   2.705308080  -0.617546500
|136> *
|137> 
|138> 
|139> $new_job
|140> 
|141> # 16h2o.yoo.etal.boat.b.3h2o.dset-orca.engrad-mp2.def2tzvp-500.to.559
|142> ! MP2 def2-TZVP EnGrad TightSCF FrozenCore
|143> 
|144> %pal
|145>     nprocs 6
|146> end
|147> 
|148> %maxcore 8000
|149> 
|150> %scf
|151>     ConvForced true
|152> end
|153> 
|154> *xyz 0 1
|155> O  -2.414228350  -3.052942980  -0.415541590
|156> H  -2.729000630  -3.919664690  -0.687548060
|157> H  -3.034566120  -2.392689920  -0.822159190
|158> O   2.515723360   1.778954740  -2.000857960
|159> H   1.652429200   1.352191620  -2.149488420
|160> H   3.139528900   1.042384330  -1.868032090
|161> O  -0.118796780   1.863412090   0.558787180
|162> H  -0.042407130   1.457940650  -0.333750430
|163> H   0.657441220   2.450573430   0.618030400
|164> *
|165> 
|166> 
|167> $new_job
|168> 
|169> # 16h2o.yoo.etal.boat.b.3h2o.dset-orca.engrad-mp2.def2tzvp-500.to.559
|170> ! MP2 def2-TZVP EnGrad TightSCF FrozenCore
|171> 
|172> %pal
|173>     nprocs 6
|174> end
|175> 
|176> %maxcore 8000
|177> 
|178> %scf
|179>     ConvForced true
|180> end
|181> 
|182> *xyz 0 1
|183> O  -2.414228350  -3.052942980  -0.415541590
|184> H  -2.729000630  -3.919664690  -0.687548060
|185> H  -3.034566120  -2.392689920  -0.822159190
|186> O   2.515723360   1.778954740  -2.000857960
|187> H   1.652429200   1.352191620  -2.149488420
|188> H   3.139528900   1.042384330  -1.868032090
|189> O  -2.856893130   2.235015450  -0.006053840
|190> H  -1.950109880   2.266134990   0.348554180
|191> H  -3.334753900   1.599732010   0.557436650
|192> *
|193> 
|194> 
|195> $new_job
|196> 
|197> # 16h2o.yoo.etal.boat.b.3h2o.dset-orca.engrad-mp2.def2tzvp-500.to.559
|198> ! MP2 def2-TZVP EnGrad TightSCF FrozenCore
|199> 
|200> %pal
|201>     nprocs 6
|202> end
|203> 
|204> %maxcore 8000
|205> 
|206> %scf
|207>     ConvForced true
|208> end
|209> 
|210> *xyz 0 1
|211> O  -2.414228350  -3.052942980  -0.415541590
|212> H  -2.729000630  -3.919664690  -0.687548060
|213> H  -3.034566120  -2.392689920  -0.822159190
|214> O   2.515723360   1.778954740  -2.000857960
|215> H   1.652429200   1.352191620  -2.149488420
|216> H   3.139528900   1.042384330  -1.868032090
|217> O  -4.238936560   0.123091700   1.259056120
|218> H  -4.967739430   0.226879490   1.877485830
|219> H  -3.616055280  -0.530301490   1.674653570
|220> *
|221> 
|222> 
|223> $new_job
|224> 
|225> # 16h2o.yoo.etal.boat.b.3h2o.dset-orca.engrad-mp2.def2tzvp-500.to.559
|226> ! MP2 def2-TZVP EnGrad TightSCF FrozenCore
|227> 
|228> %pal
|229>     nprocs 6
|230> end
|231> 
|232> %maxcore 8000
|233> 
|234> %scf
|235>     ConvForced true
|236> end
|237> 
|238> *xyz 0 1
|239> O  -2.414228350  -3.052942980  -0.415541590
|240> H  -2.729000630  -3.919664690  -0.687548060
|241> H  -3.034566120  -2.392689920  -0.822159190
|242> O   2.515723360   1.778954740  -2.000857960
|243> H   1.652429200   1.352191620  -2.149488420
|244> H   3.139528900   1.042384330  -1.868032090
|245> O   4.267375430  -0.273424570  -1.171620400
|246> H   3.752967870  -1.067260270  -0.868274570
|247> H   5.021742090  -0.616076610  -1.659299840
|248> *
|249> 
|250> 
|251> $new_job
|252> 
|253> # 16h2o.yoo.etal.boat.b.3h2o.dset-orca.engrad-mp2.def2tzvp-500.to.559
|254> ! MP2 def2-TZVP EnGrad TightSCF FrozenCore
|255> 
|256> %pal
|257>     nprocs 6
|258> end
|259> 
|260> %maxcore 8000
|261> 
|262> %scf
|263>     ConvForced true
|264> end
|265> 
|266> *xyz 0 1
|267> O  -2.414228350  -3.052942980  -0.415541590
|268> H  -2.729000630  -3.919664690  -0.687548060
|269> H  -3.034566120  -2.392689920  -0.822159190
|270> O   2.515723360   1.778954740  -2.000857960
|271> H   1.652429200   1.352191620  -2.149488420
|272> H   3.139528900   1.042384330  -1.868032090
|273> O   0.090174750  -1.846110530  -0.580225690
|274> H  -0.702804930  -2.412943650  -0.634769220
|275> H   0.031662010  -1.434201840   0.310610750
|276> *
|277> 
|278> 
|279> $new_job
|280> 
|281> # 16h2o.yoo.etal.boat.b.3h2o.dset-orca.engrad-mp2.def2tzvp-500.to.559
|282> ! MP2 def2-TZVP EnGrad TightSCF FrozenCore
|283> 
|284> %pal
|285>     nprocs 6
|286> end
|287> 
|288> %maxcore 8000
|289> 
|290> %scf
|291>     ConvForced true
|292> end
|293> 
|294> *xyz 0 1
|295> O  -2.414228350  -3.052942980  -0.415541590
|296> H  -2.729000630  -3.919664690  -0.687548060
|297> H  -3.034566120  -2.392689920  -0.822159190
|298> O   2.394165620   3.094502760   0.295580090
|299> H   2.635243310   4.021878780   0.214380780
|300> H   2.470452610   2.705308080  -0.617546500
|301> O  -0.118796780   1.863412090   0.558787180
|302> H  -0.042407130   1.457940650  -0.333750430
|303> H   0.657441220   2.450573430   0.618030400
|304> *
|305> 
|306> 
|307> $new_job
|308> 
|309> # 16h2o.yoo.etal.boat.b.3h2o.dset-orca.engrad-mp2.def2tzvp-500.to.559
|310> ! MP2 def2-TZVP EnGrad TightSCF FrozenCore
|311> 
|312> %pal
|313>     nprocs 6
|314> end
|315> 
|316> %maxcore 8000
|317> 
|318> %scf
|319>     ConvForced true
|320> end
|321> 
|322> *xyz 0 1
|323> O  -2.414228350  -3.052942980  -0.415541590
|324> H  -2.729000630  -3.919664690  -0.687548060
|325> H  -3.034566120  -2.392689920  -0.822159190
|326> O   2.394165620   3.094502760   0.295580090
|327> H   2.635243310   4.021878780   0.214380780
|328> H   2.470452610   2.705308080  -0.617546500
|329> O  -2.856893130   2.235015450  -0.006053840
|330> H  -1.950109880   2.266134990   0.348554180
|331> H  -3.334753900   1.599732010   0.557436650
|332> *
|333> 
|334> 
|335> $new_job
|336> 
|337> # 16h2o.yoo.etal.boat.b.3h2o.dset-orca.engrad-mp2.def2tzvp-500.to.559
|338> ! MP2 def2-TZVP EnGrad TightSCF FrozenCore
|339> 
|340> %pal
|341>     nprocs 6
|342> end
|343> 
|344> %maxcore 8000
|345> 
|346> %scf
|347>     ConvForced true
|348> end
|349> 
|350> *xyz 0 1
|351> O  -2.414228350  -3.052942980  -0.415541590
|352> H  -2.729000630  -3.919664690  -0.687548060
|353> H  -3.034566120  -2.392689920  -0.822159190
|354> O   2.394165620   3.094502760   0.295580090
|355> H   2.635243310   4.021878780   0.214380780
|356> H   2.470452610   2.705308080  -0.617546500
|357> O  -4.238936560   0.123091700   1.259056120
|358> H  -4.967739430   0.226879490   1.877485830
|359> H  -3.616055280  -0.530301490   1.674653570
|360> *
|361> 
|362> 
|363> $new_job
|364> 
|365> # 16h2o.yoo.etal.boat.b.3h2o.dset-orca.engrad-mp2.def2tzvp-500.to.559
|366> ! MP2 def2-TZVP EnGrad TightSCF FrozenCore
|367> 
|368> %pal
|369>     nprocs 6
|370> end
|371> 
|372> %maxcore 8000
|373> 
|374> %scf
|375>     ConvForced true
|376> end
|377> 
|378> *xyz 0 1
|379> O  -2.414228350  -3.052942980  -0.415541590
|380> H  -2.729000630  -3.919664690  -0.687548060
|381> H  -3.034566120  -2.392689920  -0.822159190
|382> O   2.394165620   3.094502760   0.295580090
|383> H   2.635243310   4.021878780   0.214380780
|384> H   2.470452610   2.705308080  -0.617546500
|385> O   4.267375430  -0.273424570  -1.171620400
|386> H   3.752967870  -1.067260270  -0.868274570
|387> H   5.021742090  -0.616076610  -1.659299840
|388> *
|389> 
|390> 
|391> $new_job
|392> 
|393> # 16h2o.yoo.etal.boat.b.3h2o.dset-orca.engrad-mp2.def2tzvp-500.to.559
|394> ! MP2 def2-TZVP EnGrad TightSCF FrozenCore
|395> 
|396> %pal
|397>     nprocs 6
|398> end
|399> 
|400> %maxcore 8000
|401> 
|402> %scf
|403>     ConvForced true
|404> end
|405> 
|406> *xyz 0 1
|407> O  -2.414228350  -3.052942980  -0.415541590
|408> H  -2.729000630  -3.919664690  -0.687548060
|409> H  -3.034566120  -2.392689920  -0.822159190
|410> O   2.394165620   3.094502760   0.295580090
|411> H   2.635243310   4.021878780   0.214380780
|412> H   2.470452610   2.705308080  -0.617546500
|413> O   0.090174750  -1.846110530  -0.580225690
|414> H  -0.702804930  -2.412943650  -0.634769220
|415> H   0.031662010  -1.434201840   0.310610750
|416> *
|417> 
|418> 
|419> $new_job
|420> 
|421> # 16h2o.yoo.etal.boat.b.3h2o.dset-orca.engrad-mp2.def2tzvp-500.to.559
|422> ! MP2 def2-TZVP EnGrad TightSCF FrozenCore
|423> 
|424> %pal
|425>     nprocs 6
|426> end
|427> 
|428> %maxcore 8000
|429> 
|430> %scf
|431>     ConvForced true
|432> end
|433> 
|434> *xyz 0 1
|435> O  -2.414228350  -3.052942980  -0.415541590
|436> H  -2.729000630  -3.919664690  -0.687548060
|437> H  -3.034566120  -2.392689920  -0.822159190
|438> O  -0.118796780   1.863412090   0.558787180
|439> H  -0.042407130   1.457940650  -0.333750430
|440> H   0.657441220   2.450573430   0.618030400
|441> O  -2.856893130   2.235015450  -0.006053840
|442> H  -1.950109880   2.266134990   0.348554180
|443> H  -3.334753900   1.599732010   0.557436650
|444> *
|445> 
|446> 
|447> $new_job
|448> 
|449> # 16h2o.yoo.etal.boat.b.3h2o.dset-orca.engrad-mp2.def2tzvp-500.to.559
|450> ! MP2 def2-TZVP EnGrad TightSCF FrozenCore
|451> 
|452> %pal
|453>     nprocs 6
|454> end
|455> 
|456> %maxcore 8000
|457> 
|458> %scf
|459>     ConvForced true
|460> end
|461> 
|462> *xyz 0 1
|463> O  -2.414228350  -3.052942980  -0.415541590
|464> H  -2.729000630  -3.919664690  -0.687548060
|465> H  -3.034566120  -2.392689920  -0.822159190
|466> O  -0.118796780   1.863412090   0.558787180
|467> H  -0.042407130   1.457940650  -0.333750430
|468> H   0.657441220   2.450573430   0.618030400
|469> O  -4.238936560   0.123091700   1.259056120
|470> H  -4.967739430   0.226879490   1.877485830
|471> H  -3.616055280  -0.530301490   1.674653570
|472> *
|473> 
|474> 
|475> $new_job
|476> 
|477> # 16h2o.yoo.etal.boat.b.3h2o.dset-orca.engrad-mp2.def2tzvp-500.to.559
|478> ! MP2 def2-TZVP EnGrad TightSCF FrozenCore
|479> 
|480> %pal
|481>     nprocs 6
|482> end
|483> 
|484> %maxcore 8000
|485> 
|486> %scf
|487>     ConvForced true
|488> end
|489> 
|490> *xyz 0 1
|491> O  -2.414228350  -3.052942980  -0.415541590
|492> H  -2.729000630  -3.919664690  -0.687548060
|493> H  -3.034566120  -2.392689920  -0.822159190
|494> O  -0.118796780   1.863412090   0.558787180
|495> H  -0.042407130   1.457940650  -0.333750430
|496> H   0.657441220   2.450573430   0.618030400
|497> O   4.267375430  -0.273424570  -1.171620400
|498> H   3.752967870  -1.067260270  -0.868274570
|499> H   5.021742090  -0.616076610  -1.659299840
|500> *
|501> 
|502> 
|503> $new_job
|504> 
|505> # 16h2o.yoo.etal.boat.b.3h2o.dset-orca.engrad-mp2.def2tzvp-500.to.559
|506> ! MP2 def2-TZVP EnGrad TightSCF FrozenCore
|507> 
|508> %pal
|509>     nprocs 6
|510> end
|511> 
|512> %maxcore 8000
|513> 
|514> %scf
|515>     ConvForced true
|516> end
|517> 
|518> *xyz 0 1
|519> O  -2.414228350  -3.052942980  -0.415541590
|520> H  -2.729000630  -3.919664690  -0.687548060
|521> H  -3.034566120  -2.392689920  -0.822159190
|522> O  -0.118796780   1.863412090   0.558787180
|523> H  -0.042407130   1.457940650  -0.333750430
|524> H   0.657441220   2.450573430   0.618030400
|525> O   0.090174750  -1.846110530  -0.580225690
|526> H  -0.702804930  -2.412943650  -0.634769220
|527> H   0.031662010  -1.434201840   0.310610750
|528> *
|529> 
|530> 
|531> $new_job
|532> 
|533> # 16h2o.yoo.etal.boat.b.3h2o.dset-orca.engrad-mp2.def2tzvp-500.to.559
|534> ! MP2 def2-TZVP EnGrad TightSCF FrozenCore
|535> 
|536> %pal
|537>     nprocs 6
|538> end
|539> 
|540> %maxcore 8000
|541> 
|542> %scf
|543>     ConvForced true
|544> end
|545> 
|546> *xyz 0 1
|547> O  -2.414228350  -3.052942980  -0.415541590
|548> H  -2.729000630  -3.919664690  -0.687548060
|549> H  -3.034566120  -2.392689920  -0.822159190
|550> O  -2.856893130   2.235015450  -0.006053840
|551> H  -1.950109880   2.266134990   0.348554180
|552> H  -3.334753900   1.599732010   0.557436650
|553> O  -4.238936560   0.123091700   1.259056120
|554> H  -4.967739430   0.226879490   1.877485830
|555> H  -3.616055280  -0.530301490   1.674653570
|556> *
|557> 
|558> 
|559> $new_job
|560> 
|561> # 16h2o.yoo.etal.boat.b.3h2o.dset-orca.engrad-mp2.def2tzvp-500.to.559
|562> ! MP2 def2-TZVP EnGrad TightSCF FrozenCore
|563> 
|564> %pal
|565>     nprocs 6
|566> end
|567> 
|568> %maxcore 8000
|569> 
|570> %scf
|571>     ConvForced true
|572> end
|573> 
|574> *xyz 0 1
|575> O  -2.414228350  -3.052942980  -0.415541590
|576> H  -2.729000630  -3.919664690  -0.687548060
|577> H  -3.034566120  -2.392689920  -0.822159190
|578> O  -2.856893130   2.235015450  -0.006053840
|579> H  -1.950109880   2.266134990   0.348554180
|580> H  -3.334753900   1.599732010   0.557436650
|581> O   4.267375430  -0.273424570  -1.171620400
|582> H   3.752967870  -1.067260270  -0.868274570
|583> H   5.021742090  -0.616076610  -1.659299840
|584> *
|585> 
|586> 
|587> $new_job
|588> 
|589> # 16h2o.yoo.etal.boat.b.3h2o.dset-orca.engrad-mp2.def2tzvp-500.to.559
|590> ! MP2 def2-TZVP EnGrad TightSCF FrozenCore
|591> 
|592> %pal
|593>     nprocs 6
|594> end
|595> 
|596> %maxcore 8000
|597> 
|598> %scf
|599>     ConvForced true
|600> end
|601> 
|602> *xyz 0 1
|603> O  -2.414228350  -3.052942980  -0.415541590
|604> H  -2.729000630  -3.919664690  -0.687548060
|605> H  -3.034566120  -2.392689920  -0.822159190
|606> O  -2.856893130   2.235015450  -0.006053840
|607> H  -1.950109880   2.266134990   0.348554180
|608> H  -3.334753900   1.599732010   0.557436650
|609> O   0.090174750  -1.846110530  -0.580225690
|610> H  -0.702804930  -2.412943650  -0.634769220
|611> H   0.031662010  -1.434201840   0.310610750
|612> *
|613> 
|614> 
|615> $new_job
|616> 
|617> # 16h2o.yoo.etal.boat.b.3h2o.dset-orca.engrad-mp2.def2tzvp-500.to.559
|618> ! MP2 def2-TZVP EnGrad TightSCF FrozenCore
|619> 
|620> %pal
|621>     nprocs 6
|622> end
|623> 
|624> %maxcore 8000
|625> 
|626> %scf
|627>     ConvForced true
|628> end
|629> 
|630> *xyz 0 1
|631> O  -2.414228350  -3.052942980  -0.415541590
|632> H  -2.729000630  -3.919664690  -0.687548060
|633> H  -3.034566120  -2.392689920  -0.822159190
|634> O  -4.238936560   0.123091700   1.259056120
|635> H  -4.967739430   0.226879490   1.877485830
|636> H  -3.616055280  -0.530301490   1.674653570
|637> O   4.267375430  -0.273424570  -1.171620400
|638> H   3.752967870  -1.067260270  -0.868274570
|639> H   5.021742090  -0.616076610  -1.659299840
|640> *
|641> 
|642> 
|643> $new_job
|644> 
|645> # 16h2o.yoo.etal.boat.b.3h2o.dset-orca.engrad-mp2.def2tzvp-500.to.559
|646> ! MP2 def2-TZVP EnGrad TightSCF FrozenCore
|647> 
|648> %pal
|649>     nprocs 6
|650> end
|651> 
|652> %maxcore 8000
|653> 
|654> %scf
|655>     ConvForced true
|656> end
|657> 
|658> *xyz 0 1
|659> O  -2.414228350  -3.052942980  -0.415541590
|660> H  -2.729000630  -3.919664690  -0.687548060
|661> H  -3.034566120  -2.392689920  -0.822159190
|662> O  -4.238936560   0.123091700   1.259056120
|663> H  -4.967739430   0.226879490   1.877485830
|664> H  -3.616055280  -0.530301490   1.674653570
|665> O   0.090174750  -1.846110530  -0.580225690
|666> H  -0.702804930  -2.412943650  -0.634769220
|667> H   0.031662010  -1.434201840   0.310610750
|668> *
|669> 
|670> 
|671> $new_job
|672> 
|673> # 16h2o.yoo.etal.boat.b.3h2o.dset-orca.engrad-mp2.def2tzvp-500.to.559
|674> ! MP2 def2-TZVP EnGrad TightSCF FrozenCore
|675> 
|676> %pal
|677>     nprocs 6
|678> end
|679> 
|680> %maxcore 8000
|681> 
|682> %scf
|683>     ConvForced true
|684> end
|685> 
|686> *xyz 0 1
|687> O  -2.414228350  -3.052942980  -0.415541590
|688> H  -2.729000630  -3.919664690  -0.687548060
|689> H  -3.034566120  -2.392689920  -0.822159190
|690> O   4.267375430  -0.273424570  -1.171620400
|691> H   3.752967870  -1.067260270  -0.868274570
|692> H   5.021742090  -0.616076610  -1.659299840
|693> O   0.090174750  -1.846110530  -0.580225690
|694> H  -0.702804930  -2.412943650  -0.634769220
|695> H   0.031662010  -1.434201840   0.310610750
|696> *
|697> 
|698> 
|699> $new_job
|700> 
|701> # 16h2o.yoo.etal.boat.b.3h2o.dset-orca.engrad-mp2.def2tzvp-500.to.559
|702> ! MP2 def2-TZVP EnGrad TightSCF FrozenCore
|703> 
|704> %pal
|705>     nprocs 6
|706> end
|707> 
|708> %maxcore 8000
|709> 
|710> %scf
|711>     ConvForced true
|712> end
|713> 
|714> *xyz 0 1
|715> O   2.515723360   1.778954740  -2.000857960
|716> H   1.652429200   1.352191620  -2.149488420
|717> H   3.139528900   1.042384330  -1.868032090
|718> O   2.394165620   3.094502760   0.295580090
|719> H   2.635243310   4.021878780   0.214380780
|720> H   2.470452610   2.705308080  -0.617546500
|721> O  -0.118796780   1.863412090   0.558787180
|722> H  -0.042407130   1.457940650  -0.333750430
|723> H   0.657441220   2.450573430   0.618030400
|724> *
|725> 
|726> 
|727> $new_job
|728> 
|729> # 16h2o.yoo.etal.boat.b.3h2o.dset-orca.engrad-mp2.def2tzvp-500.to.559
|730> ! MP2 def2-TZVP EnGrad TightSCF FrozenCore
|731> 
|732> %pal
|733>     nprocs 6
|734> end
|735> 
|736> %maxcore 8000
|737> 
|738> %scf
|739>     ConvForced true
|740> end
|741> 
|742> *xyz 0 1
|743> O   2.515723360   1.778954740  -2.000857960
|744> H   1.652429200   1.352191620  -2.149488420
|745> H   3.139528900   1.042384330  -1.868032090
|746> O   2.394165620   3.094502760   0.295580090
|747> H   2.635243310   4.021878780   0.214380780
|748> H   2.470452610   2.705308080  -0.617546500
|749> O  -2.856893130   2.235015450  -0.006053840
|750> H  -1.950109880   2.266134990   0.348554180
|751> H  -3.334753900   1.599732010   0.557436650
|752> *
|753> 
|754> 
|755> $new_job
|756> 
|757> # 16h2o.yoo.etal.boat.b.3h2o.dset-orca.engrad-mp2.def2tzvp-500.to.559
|758> ! MP2 def2-TZVP EnGrad TightSCF FrozenCore
|759> 
|760> %pal
|761>     nprocs 6
|762> end
|763> 
|764> %maxcore 8000
|765> 
|766> %scf
|767>     ConvForced true
|768> end
|769> 
|770> *xyz 0 1
|771> O   2.515723360   1.778954740  -2.000857960
|772> H   1.652429200   1.352191620  -2.149488420
|773> H   3.139528900   1.042384330  -1.868032090
|774> O   2.394165620   3.094502760   0.295580090
|775> H   2.635243310   4.021878780   0.214380780
|776> H   2.470452610   2.705308080  -0.617546500
|777> O  -4.238936560   0.123091700   1.259056120
|778> H  -4.967739430   0.226879490   1.877485830
|779> H  -3.616055280  -0.530301490   1.674653570
|780> *
|781> 
|782> 
|783> $new_job
|784> 
|785> # 16h2o.yoo.etal.boat.b.3h2o.dset-orca.engrad-mp2.def2tzvp-500.to.559
|786> ! MP2 def2-TZVP EnGrad TightSCF FrozenCore
|787> 
|788> %pal
|789>     nprocs 6
|790> end
|791> 
|792> %maxcore 8000
|793> 
|794> %scf
|795>     ConvForced true
|796> end
|797> 
|798> *xyz 0 1
|799> O   2.515723360   1.778954740  -2.000857960
|800> H   1.652429200   1.352191620  -2.149488420
|801> H   3.139528900   1.042384330  -1.868032090
|802> O   2.394165620   3.094502760   0.295580090
|803> H   2.635243310   4.021878780   0.214380780
|804> H   2.470452610   2.705308080  -0.617546500
|805> O   4.267375430  -0.273424570  -1.171620400
|806> H   3.752967870  -1.067260270  -0.868274570
|807> H   5.021742090  -0.616076610  -1.659299840
|808> *
|809> 
|810> 
|811> $new_job
|812> 
|813> # 16h2o.yoo.etal.boat.b.3h2o.dset-orca.engrad-mp2.def2tzvp-500.to.559
|814> ! MP2 def2-TZVP EnGrad TightSCF FrozenCore
|815> 
|816> %pal
|817>     nprocs 6
|818> end
|819> 
|820> %maxcore 8000
|821> 
|822> %scf
|823>     ConvForced true
|824> end
|825> 
|826> *xyz 0 1
|827> O   2.515723360   1.778954740  -2.000857960
|828> H   1.652429200   1.352191620  -2.149488420
|829> H   3.139528900   1.042384330  -1.868032090
|830> O   2.394165620   3.094502760   0.295580090
|831> H   2.635243310   4.021878780   0.214380780
|832> H   2.470452610   2.705308080  -0.617546500
|833> O   0.090174750  -1.846110530  -0.580225690
|834> H  -0.702804930  -2.412943650  -0.634769220
|835> H   0.031662010  -1.434201840   0.310610750
|836> *
|837> 
|838> 
|839> $new_job
|840> 
|841> # 16h2o.yoo.etal.boat.b.3h2o.dset-orca.engrad-mp2.def2tzvp-500.to.559
|842> ! MP2 def2-TZVP EnGrad TightSCF FrozenCore
|843> 
|844> %pal
|845>     nprocs 6
|846> end
|847> 
|848> %maxcore 8000
|849> 
|850> %scf
|851>     ConvForced true
|852> end
|853> 
|854> *xyz 0 1
|855> O   2.515723360   1.778954740  -2.000857960
|856> H   1.652429200   1.352191620  -2.149488420
|857> H   3.139528900   1.042384330  -1.868032090
|858> O  -0.118796780   1.863412090   0.558787180
|859> H  -0.042407130   1.457940650  -0.333750430
|860> H   0.657441220   2.450573430   0.618030400
|861> O  -2.856893130   2.235015450  -0.006053840
|862> H  -1.950109880   2.266134990   0.348554180
|863> H  -3.334753900   1.599732010   0.557436650
|864> *
|865> 
|866> 
|867> $new_job
|868> 
|869> # 16h2o.yoo.etal.boat.b.3h2o.dset-orca.engrad-mp2.def2tzvp-500.to.559
|870> ! MP2 def2-TZVP EnGrad TightSCF FrozenCore
|871> 
|872> %pal
|873>     nprocs 6
|874> end
|875> 
|876> %maxcore 8000
|877> 
|878> %scf
|879>     ConvForced true
|880> end
|881> 
|882> *xyz 0 1
|883> O   2.515723360   1.778954740  -2.000857960
|884> H   1.652429200   1.352191620  -2.149488420
|885> H   3.139528900   1.042384330  -1.868032090
|886> O  -0.118796780   1.863412090   0.558787180
|887> H  -0.042407130   1.457940650  -0.333750430
|888> H   0.657441220   2.450573430   0.618030400
|889> O  -4.238936560   0.123091700   1.259056120
|890> H  -4.967739430   0.226879490   1.877485830
|891> H  -3.616055280  -0.530301490   1.674653570
|892> *
|893> 
|894> 
|895> $new_job
|896> 
|897> # 16h2o.yoo.etal.boat.b.3h2o.dset-orca.engrad-mp2.def2tzvp-500.to.559
|898> ! MP2 def2-TZVP EnGrad TightSCF FrozenCore
|899> 
|900> %pal
|901>     nprocs 6
|902> end
|903> 
|904> %maxcore 8000
|905> 
|906> %scf
|907>     ConvForced true
|908> end
|909> 
|910> *xyz 0 1
|911> O   2.515723360   1.778954740  -2.000857960
|912> H   1.652429200   1.352191620  -2.149488420
|913> H   3.139528900   1.042384330  -1.868032090
|914> O  -0.118796780   1.863412090   0.558787180
|915> H  -0.042407130   1.457940650  -0.333750430
|916> H   0.657441220   2.450573430   0.618030400
|917> O   4.267375430  -0.273424570  -1.171620400
|918> H   3.752967870  -1.067260270  -0.868274570
|919> H   5.021742090  -0.616076610  -1.659299840
|920> *
|921> 
|922> 
|923> $new_job
|924> 
|925> # 16h2o.yoo.etal.boat.b.3h2o.dset-orca.engrad-mp2.def2tzvp-500.to.559
|926> ! MP2 def2-TZVP EnGrad TightSCF FrozenCore
|927> 
|928> %pal
|929>     nprocs 6
|930> end
|931> 
|932> %maxcore 8000
|933> 
|934> %scf
|935>     ConvForced true
|936> end
|937> 
|938> *xyz 0 1
|939> O   2.515723360   1.778954740  -2.000857960
|940> H   1.652429200   1.352191620  -2.149488420
|941> H   3.139528900   1.042384330  -1.868032090
|942> O  -0.118796780   1.863412090   0.558787180
|943> H  -0.042407130   1.457940650  -0.333750430
|944> H   0.657441220   2.450573430   0.618030400
|945> O   0.090174750  -1.846110530  -0.580225690
|946> H  -0.702804930  -2.412943650  -0.634769220
|947> H   0.031662010  -1.434201840   0.310610750
|948> *
|949> 
|950> 
|951> $new_job
|952> 
|953> # 16h2o.yoo.etal.boat.b.3h2o.dset-orca.engrad-mp2.def2tzvp-500.to.559
|954> ! MP2 def2-TZVP EnGrad TightSCF FrozenCore
|955> 
|956> %pal
|957>     nprocs 6
|958> end
|959> 
|960> %maxcore 8000
|961> 
|962> %scf
|963>     ConvForced true
|964> end
|965> 
|966> *xyz 0 1
|967> O   2.515723360   1.778954740  -2.000857960
|968> H   1.652429200   1.352191620  -2.149488420
|969> H   3.139528900   1.042384330  -1.868032090
|970> O  -2.856893130   2.235015450  -0.006053840
|971> H  -1.950109880   2.266134990   0.348554180
|972> H  -3.334753900   1.599732010   0.557436650
|973> O  -4.238936560   0.123091700   1.259056120
|974> H  -4.967739430   0.226879490   1.877485830
|975> H  -3.616055280  -0.530301490   1.674653570
|976> *
|977> 
|978> 
|979> $new_job
|980> 
|981> # 16h2o.yoo.etal.boat.b.3h2o.dset-orca.engrad-mp2.def2tzvp-500.to.559
|982> ! MP2 def2-TZVP EnGrad TightSCF FrozenCore
|983> 
|984> %pal
|985>     nprocs 6
|986> end
|987> 
|988> %maxcore 8000
|989> 
|990> %scf
|991>     ConvForced true
|992> end
|993> 
|994> *xyz 0 1
|995> O   2.515723360   1.778954740  -2.000857960
|996> H   1.652429200   1.352191620  -2.149488420
|997> H   3.139528900   1.042384330  -1.868032090
|998> O  -2.856893130   2.235015450  -0.006053840
|999> H  -1.950109880   2.266134990   0.348554180
|1000> H  -3.334753900   1.599732010   0.557436650
|1001> O   4.267375430  -0.273424570  -1.171620400
|1002> H   3.752967870  -1.067260270  -0.868274570
|1003> H   5.021742090  -0.616076610  -1.659299840
|1004> *
|1005> 
|1006> 
|1007> $new_job
|1008> 
|1009> # 16h2o.yoo.etal.boat.b.3h2o.dset-orca.engrad-mp2.def2tzvp-500.to.559
|1010> ! MP2 def2-TZVP EnGrad TightSCF FrozenCore
|1011> 
|1012> %pal
|1013>     nprocs 6
|1014> end
|1015> 
|1016> %maxcore 8000
|1017> 
|1018> %scf
|1019>     ConvForced true
|1020> end
|1021> 
|1022> *xyz 0 1
|1023> O   2.515723360   1.778954740  -2.000857960
|1024> H   1.652429200   1.352191620  -2.149488420
|1025> H   3.139528900   1.042384330  -1.868032090
|1026> O  -2.856893130   2.235015450  -0.006053840
|1027> H  -1.950109880   2.266134990   0.348554180
|1028> H  -3.334753900   1.599732010   0.557436650
|1029> O   0.090174750  -1.846110530  -0.580225690
|1030> H  -0.702804930  -2.412943650  -0.634769220
|1031> H   0.031662010  -1.434201840   0.310610750
|1032> *
|1033> 
|1034> 
|1035> $new_job
|1036> 
|1037> # 16h2o.yoo.etal.boat.b.3h2o.dset-orca.engrad-mp2.def2tzvp-500.to.559
|1038> ! MP2 def2-TZVP EnGrad TightSCF FrozenCore
|1039> 
|1040> %pal
|1041>     nprocs 6
|1042> end
|1043> 
|1044> %maxcore 8000
|1045> 
|1046> %scf
|1047>     ConvForced true
|1048> end
|1049> 
|1050> *xyz 0 1
|1051> O   2.515723360   1.778954740  -2.000857960
|1052> H   1.652429200   1.352191620  -2.149488420
|1053> H   3.139528900   1.042384330  -1.868032090
|1054> O  -4.238936560   0.123091700   1.259056120
|1055> H  -4.967739430   0.226879490   1.877485830
|1056> H  -3.616055280  -0.530301490   1.674653570
|1057> O   4.267375430  -0.273424570  -1.171620400
|1058> H   3.752967870  -1.067260270  -0.868274570
|1059> H   5.021742090  -0.616076610  -1.659299840
|1060> *
|1061> 
|1062> 
|1063> $new_job
|1064> 
|1065> # 16h2o.yoo.etal.boat.b.3h2o.dset-orca.engrad-mp2.def2tzvp-500.to.559
|1066> ! MP2 def2-TZVP EnGrad TightSCF FrozenCore
|1067> 
|1068> %pal
|1069>     nprocs 6
|1070> end
|1071> 
|1072> %maxcore 8000
|1073> 
|1074> %scf
|1075>     ConvForced true
|1076> end
|1077> 
|1078> *xyz 0 1
|1079> O   2.515723360   1.778954740  -2.000857960
|1080> H   1.652429200   1.352191620  -2.149488420
|1081> H   3.139528900   1.042384330  -1.868032090
|1082> O  -4.238936560   0.123091700   1.259056120
|1083> H  -4.967739430   0.226879490   1.877485830
|1084> H  -3.616055280  -0.530301490   1.674653570
|1085> O   0.090174750  -1.846110530  -0.580225690
|1086> H  -0.702804930  -2.412943650  -0.634769220
|1087> H   0.031662010  -1.434201840   0.310610750
|1088> *
|1089> 
|1090> 
|1091> $new_job
|1092> 
|1093> # 16h2o.yoo.etal.boat.b.3h2o.dset-orca.engrad-mp2.def2tzvp-500.to.559
|1094> ! MP2 def2-TZVP EnGrad TightSCF FrozenCore
|1095> 
|1096> %pal
|1097>     nprocs 6
|1098> end
|1099> 
|1100> %maxcore 8000
|1101> 
|1102> %scf
|1103>     ConvForced true
|1104> end
|1105> 
|1106> *xyz 0 1
|1107> O   2.515723360   1.778954740  -2.000857960
|1108> H   1.652429200   1.352191620  -2.149488420
|1109> H   3.139528900   1.042384330  -1.868032090
|1110> O   4.267375430  -0.273424570  -1.171620400
|1111> H   3.752967870  -1.067260270  -0.868274570
|1112> H   5.021742090  -0.616076610  -1.659299840
|1113> O   0.090174750  -1.846110530  -0.580225690
|1114> H  -0.702804930  -2.412943650  -0.634769220
|1115> H   0.031662010  -1.434201840   0.310610750
|1116> *
|1117> 
|1118> 
|1119> $new_job
|1120> 
|1121> # 16h2o.yoo.etal.boat.b.3h2o.dset-orca.engrad-mp2.def2tzvp-500.to.559
|1122> ! MP2 def2-TZVP EnGrad TightSCF FrozenCore
|1123> 
|1124> %pal
|1125>     nprocs 6
|1126> end
|1127> 
|1128> %maxcore 8000
|1129> 
|1130> %scf
|1131>     ConvForced true
|1132> end
|1133> 
|1134> *xyz 0 1
|1135> O   2.394165620   3.094502760   0.295580090
|1136> H   2.635243310   4.021878780   0.214380780
|1137> H   2.470452610   2.705308080  -0.617546500
|1138> O  -0.118796780   1.863412090   0.558787180
|1139> H  -0.042407130   1.457940650  -0.333750430
|1140> H   0.657441220   2.450573430   0.618030400
|1141> O  -2.856893130   2.235015450  -0.006053840
|1142> H  -1.950109880   2.266134990   0.348554180
|1143> H  -3.334753900   1.599732010   0.557436650
|1144> *
|1145> 
|1146> 
|1147> $new_job
|1148> 
|1149> # 16h2o.yoo.etal.boat.b.3h2o.dset-orca.engrad-mp2.def2tzvp-500.to.559
|1150> ! MP2 def2-TZVP EnGrad TightSCF FrozenCore
|1151> 
|1152> %pal
|1153>     nprocs 6
|1154> end
|1155> 
|1156> %maxcore 8000
|1157> 
|1158> %scf
|1159>     ConvForced true
|1160> end
|1161> 
|1162> *xyz 0 1
|1163> O   2.394165620   3.094502760   0.295580090
|1164> H   2.635243310   4.021878780   0.214380780
|1165> H   2.470452610   2.705308080  -0.617546500
|1166> O  -0.118796780   1.863412090   0.558787180
|1167> H  -0.042407130   1.457940650  -0.333750430
|1168> H   0.657441220   2.450573430   0.618030400
|1169> O  -4.238936560   0.123091700   1.259056120
|1170> H  -4.967739430   0.226879490   1.877485830
|1171> H  -3.616055280  -0.530301490   1.674653570
|1172> *
|1173> 
|1174> 
|1175> $new_job
|1176> 
|1177> # 16h2o.yoo.etal.boat.b.3h2o.dset-orca.engrad-mp2.def2tzvp-500.to.559
|1178> ! MP2 def2-TZVP EnGrad TightSCF FrozenCore
|1179> 
|1180> %pal
|1181>     nprocs 6
|1182> end
|1183> 
|1184> %maxcore 8000
|1185> 
|1186> %scf
|1187>     ConvForced true
|1188> end
|1189> 
|1190> *xyz 0 1
|1191> O   2.394165620   3.094502760   0.295580090
|1192> H   2.635243310   4.021878780   0.214380780
|1193> H   2.470452610   2.705308080  -0.617546500
|1194> O  -0.118796780   1.863412090   0.558787180
|1195> H  -0.042407130   1.457940650  -0.333750430
|1196> H   0.657441220   2.450573430   0.618030400
|1197> O   4.267375430  -0.273424570  -1.171620400
|1198> H   3.752967870  -1.067260270  -0.868274570
|1199> H   5.021742090  -0.616076610  -1.659299840
|1200> *
|1201> 
|1202> 
|1203> $new_job
|1204> 
|1205> # 16h2o.yoo.etal.boat.b.3h2o.dset-orca.engrad-mp2.def2tzvp-500.to.559
|1206> ! MP2 def2-TZVP EnGrad TightSCF FrozenCore
|1207> 
|1208> %pal
|1209>     nprocs 6
|1210> end
|1211> 
|1212> %maxcore 8000
|1213> 
|1214> %scf
|1215>     ConvForced true
|1216> end
|1217> 
|1218> *xyz 0 1
|1219> O   2.394165620   3.094502760   0.295580090
|1220> H   2.635243310   4.021878780   0.214380780
|1221> H   2.470452610   2.705308080  -0.617546500
|1222> O  -0.118796780   1.863412090   0.558787180
|1223> H  -0.042407130   1.457940650  -0.333750430
|1224> H   0.657441220   2.450573430   0.618030400
|1225> O   0.090174750  -1.846110530  -0.580225690
|1226> H  -0.702804930  -2.412943650  -0.634769220
|1227> H   0.031662010  -1.434201840   0.310610750
|1228> *
|1229> 
|1230> 
|1231> $new_job
|1232> 
|1233> # 16h2o.yoo.etal.boat.b.3h2o.dset-orca.engrad-mp2.def2tzvp-500.to.559
|1234> ! MP2 def2-TZVP EnGrad TightSCF FrozenCore
|1235> 
|1236> %pal
|1237>     nprocs 6
|1238> end
|1239> 
|1240> %maxcore 8000
|1241> 
|1242> %scf
|1243>     ConvForced true
|1244> end
|1245> 
|1246> *xyz 0 1
|1247> O   2.394165620   3.094502760   0.295580090
|1248> H   2.635243310   4.021878780   0.214380780
|1249> H   2.470452610   2.705308080  -0.617546500
|1250> O  -2.856893130   2.235015450  -0.006053840
|1251> H  -1.950109880   2.266134990   0.348554180
|1252> H  -3.334753900   1.599732010   0.557436650
|1253> O  -4.238936560   0.123091700   1.259056120
|1254> H  -4.967739430   0.226879490   1.877485830
|1255> H  -3.616055280  -0.530301490   1.674653570
|1256> *
|1257> 
|1258> 
|1259> $new_job
|1260> 
|1261> # 16h2o.yoo.etal.boat.b.3h2o.dset-orca.engrad-mp2.def2tzvp-500.to.559
|1262> ! MP2 def2-TZVP EnGrad TightSCF FrozenCore
|1263> 
|1264> %pal
|1265>     nprocs 6
|1266> end
|1267> 
|1268> %maxcore 8000
|1269> 
|1270> %scf
|1271>     ConvForced true
|1272> end
|1273> 
|1274> *xyz 0 1
|1275> O   2.394165620   3.094502760   0.295580090
|1276> H   2.635243310   4.021878780   0.214380780
|1277> H   2.470452610   2.705308080  -0.617546500
|1278> O  -2.856893130   2.235015450  -0.006053840
|1279> H  -1.950109880   2.266134990   0.348554180
|1280> H  -3.334753900   1.599732010   0.557436650
|1281> O   4.267375430  -0.273424570  -1.171620400
|1282> H   3.752967870  -1.067260270  -0.868274570
|1283> H   5.021742090  -0.616076610  -1.659299840
|1284> *
|1285> 
|1286> 
|1287> $new_job
|1288> 
|1289> # 16h2o.yoo.etal.boat.b.3h2o.dset-orca.engrad-mp2.def2tzvp-500.to.559
|1290> ! MP2 def2-TZVP EnGrad TightSCF FrozenCore
|1291> 
|1292> %pal
|1293>     nprocs 6
|1294> end
|1295> 
|1296> %maxcore 8000
|1297> 
|1298> %scf
|1299>     ConvForced true
|1300> end
|1301> 
|1302> *xyz 0 1
|1303> O   2.394165620   3.094502760   0.295580090
|1304> H   2.635243310   4.021878780   0.214380780
|1305> H   2.470452610   2.705308080  -0.617546500
|1306> O  -2.856893130   2.235015450  -0.006053840
|1307> H  -1.950109880   2.266134990   0.348554180
|1308> H  -3.334753900   1.599732010   0.557436650
|1309> O   0.090174750  -1.846110530  -0.580225690
|1310> H  -0.702804930  -2.412943650  -0.634769220
|1311> H   0.031662010  -1.434201840   0.310610750
|1312> *
|1313> 
|1314> 
|1315> $new_job
|1316> 
|1317> # 16h2o.yoo.etal.boat.b.3h2o.dset-orca.engrad-mp2.def2tzvp-500.to.559
|1318> ! MP2 def2-TZVP EnGrad TightSCF FrozenCore
|1319> 
|1320> %pal
|1321>     nprocs 6
|1322> end
|1323> 
|1324> %maxcore 8000
|1325> 
|1326> %scf
|1327>     ConvForced true
|1328> end
|1329> 
|1330> *xyz 0 1
|1331> O   2.394165620   3.094502760   0.295580090
|1332> H   2.635243310   4.021878780   0.214380780
|1333> H   2.470452610   2.705308080  -0.617546500
|1334> O  -4.238936560   0.123091700   1.259056120
|1335> H  -4.967739430   0.226879490   1.877485830
|1336> H  -3.616055280  -0.530301490   1.674653570
|1337> O   4.267375430  -0.273424570  -1.171620400
|1338> H   3.752967870  -1.067260270  -0.868274570
|1339> H   5.021742090  -0.616076610  -1.659299840
|1340> *
|1341> 
|1342> 
|1343> $new_job
|1344> 
|1345> # 16h2o.yoo.etal.boat.b.3h2o.dset-orca.engrad-mp2.def2tzvp-500.to.559
|1346> ! MP2 def2-TZVP EnGrad TightSCF FrozenCore
|1347> 
|1348> %pal
|1349>     nprocs 6
|1350> end
|1351> 
|1352> %maxcore 8000
|1353> 
|1354> %scf
|1355>     ConvForced true
|1356> end
|1357> 
|1358> *xyz 0 1
|1359> O   2.394165620   3.094502760   0.295580090
|1360> H   2.635243310   4.021878780   0.214380780
|1361> H   2.470452610   2.705308080  -0.617546500
|1362> O  -4.238936560   0.123091700   1.259056120
|1363> H  -4.967739430   0.226879490   1.877485830
|1364> H  -3.616055280  -0.530301490   1.674653570
|1365> O   0.090174750  -1.846110530  -0.580225690
|1366> H  -0.702804930  -2.412943650  -0.634769220
|1367> H   0.031662010  -1.434201840   0.310610750
|1368> *
|1369> 
|1370> 
|1371> $new_job
|1372> 
|1373> # 16h2o.yoo.etal.boat.b.3h2o.dset-orca.engrad-mp2.def2tzvp-500.to.559
|1374> ! MP2 def2-TZVP EnGrad TightSCF FrozenCore
|1375> 
|1376> %pal
|1377>     nprocs 6
|1378> end
|1379> 
|1380> %maxcore 8000
|1381> 
|1382> %scf
|1383>     ConvForced true
|1384> end
|1385> 
|1386> *xyz 0 1
|1387> O   2.394165620   3.094502760   0.295580090
|1388> H   2.635243310   4.021878780   0.214380780
|1389> H   2.470452610   2.705308080  -0.617546500
|1390> O   4.267375430  -0.273424570  -1.171620400
|1391> H   3.752967870  -1.067260270  -0.868274570
|1392> H   5.021742090  -0.616076610  -1.659299840
|1393> O   0.090174750  -1.846110530  -0.580225690
|1394> H  -0.702804930  -2.412943650  -0.634769220
|1395> H   0.031662010  -1.434201840   0.310610750
|1396> *
|1397> 
|1398> 
|1399> $new_job
|1400> 
|1401> # 16h2o.yoo.etal.boat.b.3h2o.dset-orca.engrad-mp2.def2tzvp-500.to.559
[...]
LOEWDIN ATOMIC CHARGES
----------------------
   0 O :   -0.332291
   1 H :    0.157092
   2 H :    0.175062
   3 O :   -0.334985
   4 H :    0.179873
   5 H :    0.154607
   6 O :   -0.335643
   7 H :    0.166211
   8 H :    0.170075

-------------------------------
LOEWDIN REDUCED ORBITAL CHARGES
-------------------------------
  0 O s       :     3.471950  s :     3.471950
      pz      :     1.665773  p :     4.794931
      px      :     1.434559
      py      :     1.694598
      dz2     :     0.006919  d :     0.060514
      dxz     :     0.022399
      dyz     :     0.010659
      dx2y2   :     0.008757
      dxy     :     0.011779
      f0      :     0.000645  f :     0.004897
      f+1     :     0.000688
      f-1     :     0.000368
      f+2     :     0.001021
      f-2     :     0.000889
      f+3     :     0.000673
      f-3     :     0.000612
  1 H s       :     0.676948  s :     0.676948
      pz      :     0.062269  p :     0.165960
      px      :     0.063679
      py      :     0.040013
  2 H s       :     0.674043  s :     0.674043
      pz      :     0.043164  p :     0.150895
      px      :     0.048080
      py      :     0.059651
  3 O s       :     3.471307  s :     3.471307
      pz      :     1.733545  p :     4.798509
      px      :     1.478672
      py      :     1.586292
      dz2     :     0.007972  d :     0.060281
      dxz     :     0.011962
      dyz     :     0.010878
      dx2y2   :     0.010585
      dxy     :     0.018884
      f0      :     0.000879  f :     0.004888
      f+1     :     0.000412
      f-1     :     0.000464
      f+2     :     0.000686
      f-2     :     0.000934
      f+3     :     0.000867
      f-3     :     0.000646
  4 H s       :     0.668772  s :     0.668772
      pz      :     0.041156  p :     0.151355
      px      :     0.042578
      py      :     0.067621
  5 H s       :     0.679371  s :     0.679371
      pz      :     0.056302  p :     0.166022
      px      :     0.067610
      py      :     0.042109
  6 O s       :     3.477665  s :     3.477665
      pz      :     1.529052  p :     4.792230
      px      :     1.613073
      py      :     1.650104
      dz2     :     0.020141  d :     0.060853
      dxz     :     0.006041
      dyz     :     0.011066
      dx2y2   :     0.007590
      dxy     :     0.016014
      f0      :     0.000666  f :     0.004896
      f+1     :     0.000690
      f-1     :     0.001183
      f+2     :     0.000456
      f-2     :     0.000387
      f+3     :     0.000434
      f-3     :     0.001080
  7 H s       :     0.674820  s :     0.674820
      pz      :     0.031046  p :     0.158969
      px      :     0.072637
      py      :     0.055286
  8 H s       :     0.674165  s :     0.674165
      pz      :     0.077964  p :     0.155760
      px      :     0.033078
      py      :     0.044718


                      *****************************
                      * MAYER POPULATION ANALYSIS *
                      *****************************

  NA   - Mulliken gross atomic population
  ZA   - Total nuclear charge
  QA   - Mulliken gross atomic charge
  VA   - Mayer's total valence
  BVA  - Mayer's bonded valence
  FA   - Mayer's free valence

  ATOM       NA         ZA         QA         VA         BVA        FA
  0 O      8.6888     8.0000    -0.6888     2.0793     1.6938     0.3855
  1 H      0.6530     1.0000     0.3470     0.8985     0.8526     0.0460
  2 H      0.6585     1.0000     0.3415     0.9004     0.8514     0.0491
  3 O      8.6962     8.0000    -0.6962     2.0749     1.6891     0.3858
  4 H      0.6463     1.0000     0.3537     0.8926     0.8446     0.0480
  5 H      0.6582     1.0000     0.3418     0.9022     0.8558     0.0464
  6 O      8.6879     8.0000    -0.6879     2.0818     1.6954     0.3865
  7 H      0.6554     1.0000     0.3446     0.8992     0.8516     0.0476
  8 H      0.6558     1.0000     0.3442     0.8989     0.8507     0.0482

  Mayer bond orders larger than 0.100000
B(  0-O ,  1-H ) :   0.8477 B(  0-O ,  2-H ) :   0.8461 B(  3-O ,  4-H ) :   0.8383 
B(  3-O ,  5-H ) :   0.8509 B(  6-O ,  7-H ) :   0.8473 B(  6-O ,  8-H ) :   0.8464 



                *******************************************
                * RELAXED MP2 DENSITY POPULATION ANALYSIS *
                *******************************************

------------------------------------------------------------------------------
                           ORCA POPULATION ANALYSIS
------------------------------------------------------------------------------
Input electron density              ... 16h2o.yoo.etal.boat.b.3h2o.dset-orca.engrad-mp2.def2tzvp-500.to.559_job60.pmp2re
BaseName (.gbw .S,...)              ... 16h2o.yoo.etal.boat.b.3h2o.dset-orca.engrad-mp2.def2tzvp-500.to.559_job60

                    ********************************
                    * MULLIKEN POPULATION ANALYSIS *
                    ********************************

-----------------------
MULLIKEN ATOMIC CHARGES
-----------------------
   0 O :   -0.676502
   1 H :    0.340591
   2 H :    0.335627
   3 O :   -0.683608
   4 H :    0.346931
   5 H :    0.335616
   6 O :   -0.674803
   7 H :    0.338240
   8 H :    0.337908
Sum of atomic charges:   -0.0000000

--------------------------------
MULLIKEN REDUCED ORBITAL CHARGES
--------------------------------
  0 O s       :     3.812916  s :     3.812916
      pz      :     1.656123  p :     4.809826
      px      :     1.436693
      py      :     1.717011
      dz2     :     0.007960  d :     0.049738
      dxz     :     0.015665
      dyz     :     0.010398
      dx2y2   :     0.007310
      dxy     :     0.008405
      f0      :     0.000499  f :     0.004022
      f+1     :     0.000523
      f-1     :     0.000371
      f+2     :     0.000712
      f-2     :     0.000681
      f+3     :     0.000627
      f-3     :     0.000608
  1 H s       :     0.611160  s :     0.611160
      pz      :     0.016229  p :     0.048249
      px      :     0.016936
      py      :     0.015084
  2 H s       :     0.619413  s :     0.619413
      pz      :     0.013487  p :     0.044960
      px      :     0.014518
      py      :     0.016955
  3 O s       :     3.812935  s :     3.812935
      pz      :     1.766693  p :     4.816986
      px      :     1.483169
      py      :     1.567125
      dz2     :     0.007892  d :     0.049665
      dxz     :     0.008433
      dyz     :     0.009985
      dx2y2   :     0.009511
      dxy     :     0.013844
      f0      :     0.000704  f :     0.004021
      f+1     :     0.000514
      f-1     :     0.000437
      f+2     :     0.000590
      f-2     :     0.000764
      f+3     :     0.000564
      f-3     :     0.000447
  4 H s       :     0.608384  s :     0.608384
      pz      :     0.015112  p :     0.044686
      px      :     0.013972
      py      :     0.015602
  5 H s       :     0.616005  s :     0.616005
      pz      :     0.017718  p :     0.048380
      px      :     0.017606
      py      :     0.013056
  6 O s       :     3.817442  s :     3.817442
      pz      :     1.519959  p :     4.803207
      px      :     1.608057
      py      :     1.675191
      dz2     :     0.014723  d :     0.050168
      dxz     :     0.007348
      dyz     :     0.008652
      dx2y2   :     0.007696
      dxy     :     0.011749
      f0      :     0.000506  f :     0.003986
      f+1     :     0.000469
      f-1     :     0.000880
      f+2     :     0.000426
      f-2     :     0.000428
      f+3     :     0.000467
      f-3     :     0.000812
  7 H s       :     0.614943  s :     0.614943
      pz      :     0.012290  p :     0.046816
      px      :     0.017530
      py      :     0.016996
  8 H s       :     0.615982  s :     0.615982
      pz      :     0.017836  p :     0.046110
      px      :     0.012808
      py      :     0.015465


                     *******************************
                     * LOEWDIN POPULATION ANALYSIS *
                     *******************************

----------------------
LOEWDIN ATOMIC CHARGES
----------------------
   0 O :   -0.335754
   1 H :    0.158653
   2 H :    0.176898
   3 O :   -0.338338
   4 H :    0.181374
   5 H :    0.156292
   6 O :   -0.338846
   7 H :    0.167925
   8 H :    0.171797

-------------------------------
LOEWDIN REDUCED ORBITAL CHARGES
-------------------------------
  0 O s       :     3.474179  s :     3.474179
      pz      :     1.664425  p :     4.797538
      px      :     1.438576
      py      :     1.694537
      dz2     :     0.006949  d :     0.059120
      dxz     :     0.021603
      dyz     :     0.010572
      dx2y2   :     0.008577
      dxy     :     0.011418
      f0      :     0.000647  f :     0.004916
      f+1     :     0.000687
      f-1     :     0.000368
      f+2     :     0.001023
      f-2     :     0.000893
      f+3     :     0.000678
      f-3     :     0.000620
  1 H s       :     0.675370  s :     0.675370
      pz      :     0.062565  p :     0.165978
      px      :     0.062795
      py      :     0.040617
  2 H s       :     0.671933  s :     0.671933
      pz      :     0.043851  p :     0.151169
      px      :     0.047498
      py      :     0.059820
  3 O s       :     3.473448  s :     3.473448
      pz      :     1.733440  p :     4.801078
      px      :     1.481903
      py      :     1.585735
      dz2     :     0.007949  d :     0.058905
      dxz     :     0.011636
      dyz     :     0.010701
      dx2y2   :     0.010374
      dxy     :     0.018245
      f0      :     0.000883  f :     0.004908
      f+1     :     0.000413
      f-1     :     0.000465
      f+2     :     0.000691
      f-2     :     0.000944
      f+3     :     0.000868
      f-3     :     0.000643
  4 H s       :     0.667155  s :     0.667155
      pz      :     0.041739  p :     0.151471
      px      :     0.042245
      py      :     0.067487
  5 H s       :     0.677603  s :     0.677603
      pz      :     0.056615  p :     0.166106
      px      :     0.066854
      py      :     0.042636
  6 O s       :     3.479993  s :     3.479993
      pz      :     1.530296  p :     4.794469
      px      :     1.613143
      py      :     1.651031
      dz2     :     0.019459  d :     0.059468
      dxz     :     0.006122
      dyz     :     0.010783
      dx2y2   :     0.007557
      dxy     :     0.015547
      f0      :     0.000665  f :     0.004915
      f+1     :     0.000686
      f-1     :     0.001196
      f+2     :     0.000457
      f-2     :     0.000388
      f+3     :     0.000435
      f-3     :     0.001087
  7 H s       :     0.672978  s :     0.672978
      pz      :     0.031396  p :     0.159098
      px      :     0.072353
      py      :     0.055348
  8 H s       :     0.672263  s :     0.672263
      pz      :     0.077312  p :     0.155940
      px      :     0.033663
      py      :     0.044966


                      *****************************
                      * MAYER POPULATION ANALYSIS *
                      *****************************

  NA   - Mulliken gross atomic population
  ZA   - Total nuclear charge
  QA   - Mulliken gross atomic charge
  VA   - Mayer's total valence
  BVA  - Mayer's bonded valence
  FA   - Mayer's free valence

  ATOM       NA         ZA         QA         VA         BVA        FA
  0 O      8.6765     8.0000    -0.6765     2.0831     1.7023     0.3808
  1 H      0.6594     1.0000     0.3406     0.9033     0.8572     0.0460
  2 H      0.6644     1.0000     0.3356     0.9048     0.8557     0.0492
  3 O      8.6836     8.0000    -0.6836     2.0790     1.6979     0.3811
  4 H      0.6531     1.0000     0.3469     0.8981     0.8500     0.0481
  5 H      0.6644     1.0000     0.3356     0.9066     0.8601     0.0465
  6 O      8.6748     8.0000    -0.6748     2.0864     1.7048     0.3816
  7 H      0.6618     1.0000     0.3382     0.9038     0.8561     0.0477
  8 H      0.6621     1.0000     0.3379     0.9034     0.8551     0.0483

  Mayer bond orders larger than 0.100000
B(  0-O ,  1-H ) :   0.8523 B(  0-O ,  2-H ) :   0.8500 B(  3-O ,  4-H ) :   0.8428 
B(  3-O ,  5-H ) :   0.8552 B(  6-O ,  7-H ) :   0.8516 B(  6-O ,  8-H ) :   0.8507 



----------------------------------
MP2 DERIVATIVE INTEGRAL GENERATION
----------------------------------


Input Wavefunction Amplitudes       ... 16h2o.yoo.etal.boat.b.3h2o.dset-orca.engrad-mp2.def2tzvp-500.to.559_job60.mp2tsaa.tmp
Input Correlated Electron Density   ... 16h2o.yoo.etal.boat.b.3h2o.dset-orca.engrad-mp2.def2tzvp-500.to.559_job60.pmp2re
Input Energy Weighted Density       ... 16h2o.yoo.etal.boat.b.3h2o.dset-orca.engrad-mp2.def2tzvp-500.to.559_job60.wmp2.tmp
Input SCF Electron Density          ... 16h2o.yoo.etal.boat.b.3h2o.dset-orca.engrad-mp2.def2tzvp-500.to.559_job60.scfp

One-Electron Terms    ...
                        ... One-Electron Terms done
Prescreening matrices              ... done

Batch handling in the gradient evaluation:
Memory available                      ... 8000.0 MB
Memory per occupied orbital in Q2     ...    1.5 MB
Memory per occupied orbital in Q3     ...    0.0 MB
Total memory requirement per |i>      ...    1.6 MB
Max. Number of orbitals possible      ...   5089
Number of orbitals treated per batch  ...     12
Number of batches to be done          ...      1
Batch   0: i=    3 ...    14

---------------------------------------
MP2 TOTAL ENERGY:     -228.936973133 Eh
---------------------------------------

The final MP2 gradient
  0:  -0.02017183   0.01790864  -0.00749449
  1:  -0.00082008   0.00191026  -0.00242907
  2:   0.02114296  -0.01975801   0.00969968
  3:   0.01565742   0.01847366  -0.01075852
  4:  -0.01589715  -0.02164482   0.01105061
  5:   0.00079701   0.00313554  -0.00015235
  6:   0.01023447   0.00026960  -0.01721448
  7:  -0.01034746  -0.00794595  -0.00067716
  8:  -0.00059535   0.00765108   0.01797578

-----------------------------------
NORM OF THE MP2 GRADIENT:  0.065080
-----------------------------------

-------------------------   --------------------
FINAL SINGLE POINT ENERGY      -228.936973133268
-------------------------   --------------------


                            ***************************************
                            *     ORCA property calculations      *
                            ***************************************

                                    ---------------------
                                    Active property flags
                                    ---------------------
   (+) Dipole Moment


------------------------------------------------------------------------------
                       ORCA ELECTRIC PROPERTIES CALCULATION
------------------------------------------------------------------------------

Dipole Moment Calculation                       ... on
Quadrupole Moment Calculation                   ... off
Polarizability Calculation                      ... off
GBWName                                         ... 16h2o.yoo.etal.boat.b.3h2o.dset-orca.engrad-mp2.def2tzvp-500.to.559_job60.gbw
Electron density file                           ... 16h2o.yoo.etal.boat.b.3h2o.dset-orca.engrad-mp2.def2tzvp-500.to.559_job60.scfp
The origin for moment calculation is the CENTER OF MASS  = ( 0.049429, -1.322465 -0.250989)

-------------
DIPOLE MOMENT
-------------
                                X             Y             Z
Electronic contribution:      0.05124       0.22248      -0.20815
Nuclear contribution   :     -0.59718      -1.53239       1.40335
                        -----------------------------------------
Total Dipole Moment    :     -0.54594      -1.30991       1.19520
                        -----------------------------------------
Magnitude (a.u.)       :      1.85538
Magnitude (Debye)      :      4.71599



--------------------
Rotational spectrum 
--------------------
 
Rotational constants in cm-1:     0.398398     0.023495     0.022259 
Rotational constants in MHz : 11943.661341   704.371715   667.302911 

 Dipole components along the rotational axes: 
x,y,z [a.u.] :    -0.787890    -0.975677     1.367373 
x,y,z [Debye]:    -2.002657    -2.479975     3.475585 

 

                         *** MP2 UNRELAXED DENSITY ***

------------------------------------------------------------------------------
                       ORCA ELECTRIC PROPERTIES CALCULATION
------------------------------------------------------------------------------

Dipole Moment Calculation                       ... on
Quadrupole Moment Calculation                   ... off
Polarizability Calculation                      ... off
GBWName                                         ... 16h2o.yoo.etal.boat.b.3h2o.dset-orca.engrad-mp2.def2tzvp-500.to.559_job60.gbw
Electron density file                           ... 16h2o.yoo.etal.boat.b.3h2o.dset-orca.engrad-mp2.def2tzvp-500.to.559_job60.pmp2ur
The origin for moment calculation is the CENTER OF MASS  = ( 0.049429, -1.322465 -0.250989)

-------------
DIPOLE MOMENT
-------------
                                X             Y             Z
Electronic contribution:      0.05678       0.23808      -0.22262
Nuclear contribution   :     -0.59718      -1.53239       1.40335
                        -----------------------------------------
Total Dipole Moment    :     -0.54041      -1.29431       1.18072
                        -----------------------------------------
Magnitude (a.u.)       :      1.83341
Magnitude (Debye)      :      4.66015



--------------------
Rotational spectrum 
--------------------
 
Rotational constants in cm-1:     0.398398     0.023495     0.022259 
Rotational constants in MHz : 11943.661341   704.371715   667.302911 

 Dipole components along the rotational axes: 
x,y,z [a.u.] :    -0.779366    -0.964263     1.350620 
x,y,z [Debye]:    -1.980991    -2.450962     3.433002 

 

                           *** MP2 RELAXED DENSITY ***

------------------------------------------------------------------------------
                       ORCA ELECTRIC PROPERTIES CALCULATION
------------------------------------------------------------------------------

Dipole Moment Calculation                       ... on
Quadrupole Moment Calculation                   ... off
Polarizability Calculation                      ... off
GBWName                                         ... 16h2o.yoo.etal.boat.b.3h2o.dset-orca.engrad-mp2.def2tzvp-500.to.559_job60.gbw
Electron density file                           ... 16h2o.yoo.etal.boat.b.3h2o.dset-orca.engrad-mp2.def2tzvp-500.to.559_job60.pmp2re
The origin for moment calculation is the CENTER OF MASS  = ( 0.049429, -1.322465 -0.250989)

-------------
DIPOLE MOMENT
-------------
                                X             Y             Z
Electronic contribution:      0.06251       0.25383      -0.23837
Nuclear contribution   :     -0.59718      -1.53239       1.40335
                        -----------------------------------------
Total Dipole Moment    :     -0.53468      -1.27857       1.16498
                        -----------------------------------------
Magnitude (a.u.)       :      1.81047
Magnitude (Debye)      :      4.60184



--------------------
Rotational spectrum 
--------------------
 
Rotational constants in cm-1:     0.398398     0.023495     0.022259 
Rotational constants in MHz : 11943.661341   704.371715   667.302911 

 Dipole components along the rotational axes: 
x,y,z [a.u.] :    -0.770301    -0.953047     1.332713 
x,y,z [Debye]:    -1.957949    -2.422453     3.387488 

 

Timings for individual modules:

Sum of individual times         ...        6.922 sec (=   0.115 min)
GTO integral calculation        ...        0.868 sec (=   0.014 min)  12.5 %
SCF iterations                  ...        3.028 sec (=   0.050 min)  43.7 %
MP2 module                      ...        3.027 sec (=   0.050 min)  43.7 %



                             ****ORCA TERMINATED NORMALLY****
TOTAL RUN TIME: 0 days 0 hours 9 minutes 2 seconds 903 msec
