
                                 *****************
                                 * O   R   C   A *
                                 *****************

           --- An Ab Initio, DFT and Semiempirical electronic structure package ---

                  #######################################################
                  #                        -***-                        #
                  #          Department of theory and spectroscopy      #
                  #               Directorship: Frank Neese             #
                  #        Max Planck Institute fuer Kohlenforschung    #
                  #                Kaiser Wilhelm Platz 1               #
                  #                 D-45470 Muelheim/Ruhr               #
                  #                      Germany                        #
                  #                                                     #
                  #                  All rights reserved                #
                  #                        -***-                        #
                  #######################################################


                         Program Version 4.2.0 -  RELEASE  -


 With contributions from (in alphabetic order):
   Daniel Aravena         : Magnetic Suceptibility
   Michael Atanasov       : Ab Initio Ligand Field Theory (pilot matlab implementation)
   Alexander A. Auer      : GIAO ZORA, VPT2
   Ute Becker             : Parallelization
   Giovanni Bistoni       : ED, misc. LED, open-shell LED, HFLED
   Martin Brehm           : Molecular dynamics
   Dmytro Bykov           : SCF Hessian
   Vijay G. Chilkuri      : MRCI spin determinant printing, contributions to CSF-ICE
   Dipayan Datta          : RHF DLPNO-CCSD density
   Achintya Kumar Dutta   : EOM-CC, STEOM-CC
   Dmitry Ganyushin       : Spin-Orbit,Spin-Spin,Magnetic field MRCI
   Miquel Garcia          : C-PCM Hessian, Gaussian charge scheme
   Yang Guo               : DLPNO-NEVPT2, CIM, IAO-localization
   Andreas Hansen         : Spin unrestricted coupled pair/coupled cluster methods
   Benjamin Helmich-Paris : CASSCF linear response (MC-RPA)
   Lee Huntington         : MR-EOM, pCC
   Robert Izsak           : Overlap fitted RIJCOSX, COSX-SCS-MP3, EOM
   Christian Kollmar      : KDIIS, OOCD, Brueckner-CCSD(T), CCSD density
   Simone Kossmann        : Meta GGA functionals, TD-DFT gradient, OOMP2, MP2 Hessian
   Martin Krupicka        : AUTO-CI
   Lucas Lang             : DCDCAS
   Dagmar Lenk            : GEPOL surface, SMD
   Dimitrios Liakos       : Extrapolation schemes; Compound Job, initial MDCI parallelization
   Dimitrios Manganas     : Further ROCIS development; embedding schemes
   Dimitrios Pantazis     : SARC Basis sets
   Taras Petrenko         : DFT Hessian,TD-DFT gradient, ASA, ECA, R-Raman, ABS, FL, XAS/XES, NRVS
   Peter Pinski           : DLPNO-MP2, DLPNO-MP2 Gradient
   Christoph Reimann      : Effective Core Potentials
   Marius Retegan         : Local ZFS, SOC
   Christoph Riplinger    : Optimizer, TS searches, QM/MM, DLPNO-CCSD(T), (RO)-DLPNO pert. Triples
   Tobias Risthaus        : Range-separated hybrids, TD-DFT gradient, RPA, STAB
   Michael Roemelt        : Original ROCIS implementation
   Masaaki Saitow         : Open-shell DLPNO-CCSD energy and density
   Barbara Sandhoefer     : DKH picture change effects
   Avijit Sen             : IP-ROCIS
   Kantharuban Sivalingam : CASSCF convergence, NEVPT2, FIC-MRCI
   Bernardo de Souza      : ESD, SOC TD-DFT
   Georgi Stoychev        : AutoAux, RI-MP2 NMR
   Willem Van den Heuvel  : Paramagnetic NMR
   Boris Wezisla          : Elementary symmetry handling
   Frank Wennmohs         : Technical directorship


 We gratefully acknowledge several colleagues who have allowed us to
 interface, adapt or use parts of their codes:
   Stefan Grimme, W. Hujo, H. Kruse,             : VdW corrections, initial TS optimization,
                  C. Bannwarth                     DFT functionals, gCP, sTDA/sTD-DF
   Ed Valeev, F. Pavosevic, A. Kumar             : LibInt (2-el integral package), F12 methods
   Garnet Chan, S. Sharma, J. Yang, R. Olivares  : DMRG
   Ulf Ekstrom                                   : XCFun DFT Library
   Mihaly Kallay                                 : mrcc  (arbitrary order and MRCC methods)
   Andreas Klamt, Michael Diedenhofen            : otool_cosmo (COSMO solvation model)
   Jiri Pittner, Ondrej Demel                    : Mk-CCSD
   Frank Weinhold                                : gennbo (NPA and NBO analysis)
   Christopher J. Cramer and Donald G. Truhlar   : smd solvation model
   Lars Goerigk                                  : TD-DFT with DH, B97 family of functionals
   V. Asgeirsson, H. Jonsson                     : NEB implementation
   FAccTs GmbH                                   : IRC, NEB, NEB-TS, Multilevel, MM, QM/MM, CI optimization
   S Lehtola, MJT Oliveira, MAL Marques          : LibXC Library


 Your calculation uses the libint2 library for the computation of 2-el integrals
 For citations please refer to: http://libint.valeyev.net

 Your ORCA version has been built with support for libXC version: 4.2.3
 For citations please refer to: https://tddft.org/programs/libxc/

 This ORCA versions uses:
   CBLAS   interface :  Fast vector & matrix operations
   LAPACKE interface :  Fast linear algebra routines
   SCALAPACK package :  Parallel linear algebra routines


----- Orbital basis set information -----
Your calculation utilizes the basis: def2-TZVP
   F. Weigend and R. Ahlrichs, Phys. Chem. Chem. Phys. 7, 3297 (2005).

================================================================================
                                        WARNINGS
                       Please study these warnings very carefully!
================================================================================


WARNING: The frozen-core approximation for MP2-gradient calculations is turned on by default.

INFO   : the flag for use of LIBINT has been found!

----- Orbital basis set information -----
Your calculation utilizes the basis: def2-TZVP
   F. Weigend and R. Ahlrichs, Phys. Chem. Chem. Phys. 7, 3297 (2005).

================================================================================
                                        WARNINGS
                       Please study these warnings very carefully!
================================================================================


WARNING: The frozen-core approximation for MP2-gradient calculations is turned on by default.

INFO   : the flag for use of LIBINT has been found!

----- Orbital basis set information -----
Your calculation utilizes the basis: def2-TZVP
   F. Weigend and R. Ahlrichs, Phys. Chem. Chem. Phys. 7, 3297 (2005).

================================================================================
                                        WARNINGS
                       Please study these warnings very carefully!
================================================================================


WARNING: The frozen-core approximation for MP2-gradient calculations is turned on by default.

INFO   : the flag for use of LIBINT has been found!

----- Orbital basis set information -----
Your calculation utilizes the basis: def2-TZVP
   F. Weigend and R. Ahlrichs, Phys. Chem. Chem. Phys. 7, 3297 (2005).

================================================================================
                                        WARNINGS
                       Please study these warnings very carefully!
================================================================================


WARNING: The frozen-core approximation for MP2-gradient calculations is turned on by default.

INFO   : the flag for use of LIBINT has been found!

----- Orbital basis set information -----
Your calculation utilizes the basis: def2-TZVP
   F. Weigend and R. Ahlrichs, Phys. Chem. Chem. Phys. 7, 3297 (2005).

================================================================================
                                        WARNINGS
                       Please study these warnings very carefully!
================================================================================


WARNING: The frozen-core approximation for MP2-gradient calculations is turned on by default.

INFO   : the flag for use of LIBINT has been found!

----- Orbital basis set information -----
Your calculation utilizes the basis: def2-TZVP
   F. Weigend and R. Ahlrichs, Phys. Chem. Chem. Phys. 7, 3297 (2005).

================================================================================
                                        WARNINGS
                       Please study these warnings very carefully!
================================================================================


WARNING: The frozen-core approximation for MP2-gradient calculations is turned on by default.

INFO   : the flag for use of LIBINT has been found!

----- Orbital basis set information -----
Your calculation utilizes the basis: def2-TZVP
   F. Weigend and R. Ahlrichs, Phys. Chem. Chem. Phys. 7, 3297 (2005).

================================================================================
                                        WARNINGS
                       Please study these warnings very carefully!
================================================================================


WARNING: The frozen-core approximation for MP2-gradient calculations is turned on by default.

INFO   : the flag for use of LIBINT has been found!

----- Orbital basis set information -----
Your calculation utilizes the basis: def2-TZVP
   F. Weigend and R. Ahlrichs, Phys. Chem. Chem. Phys. 7, 3297 (2005).

================================================================================
                                        WARNINGS
                       Please study these warnings very carefully!
================================================================================


WARNING: The frozen-core approximation for MP2-gradient calculations is turned on by default.

INFO   : the flag for use of LIBINT has been found!

----- Orbital basis set information -----
Your calculation utilizes the basis: def2-TZVP
   F. Weigend and R. Ahlrichs, Phys. Chem. Chem. Phys. 7, 3297 (2005).

================================================================================
                                        WARNINGS
                       Please study these warnings very carefully!
================================================================================


WARNING: The frozen-core approximation for MP2-gradient calculations is turned on by default.

INFO   : the flag for use of LIBINT has been found!

----- Orbital basis set information -----
Your calculation utilizes the basis: def2-TZVP
   F. Weigend and R. Ahlrichs, Phys. Chem. Chem. Phys. 7, 3297 (2005).

================================================================================
                                        WARNINGS
                       Please study these warnings very carefully!
================================================================================


WARNING: The frozen-core approximation for MP2-gradient calculations is turned on by default.

INFO   : the flag for use of LIBINT has been found!

----- Orbital basis set information -----
Your calculation utilizes the basis: def2-TZVP
   F. Weigend and R. Ahlrichs, Phys. Chem. Chem. Phys. 7, 3297 (2005).

================================================================================
                                        WARNINGS
                       Please study these warnings very carefully!
================================================================================


WARNING: The frozen-core approximation for MP2-gradient calculations is turned on by default.

INFO   : the flag for use of LIBINT has been found!

----- Orbital basis set information -----
Your calculation utilizes the basis: def2-TZVP
   F. Weigend and R. Ahlrichs, Phys. Chem. Chem. Phys. 7, 3297 (2005).

================================================================================
                                        WARNINGS
                       Please study these warnings very carefully!
================================================================================


WARNING: The frozen-core approximation for MP2-gradient calculations is turned on by default.

INFO   : the flag for use of LIBINT has been found!

----- Orbital basis set information -----
Your calculation utilizes the basis: def2-TZVP
   F. Weigend and R. Ahlrichs, Phys. Chem. Chem. Phys. 7, 3297 (2005).

================================================================================
                                        WARNINGS
                       Please study these warnings very carefully!
================================================================================


WARNING: The frozen-core approximation for MP2-gradient calculations is turned on by default.

INFO   : the flag for use of LIBINT has been found!

----- Orbital basis set information -----
Your calculation utilizes the basis: def2-TZVP
   F. Weigend and R. Ahlrichs, Phys. Chem. Chem. Phys. 7, 3297 (2005).

================================================================================
                                        WARNINGS
                       Please study these warnings very carefully!
================================================================================


WARNING: The frozen-core approximation for MP2-gradient calculations is turned on by default.

INFO   : the flag for use of LIBINT has been found!

----- Orbital basis set information -----
Your calculation utilizes the basis: def2-TZVP
   F. Weigend and R. Ahlrichs, Phys. Chem. Chem. Phys. 7, 3297 (2005).

================================================================================
                                        WARNINGS
                       Please study these warnings very carefully!
================================================================================


WARNING: The frozen-core approximation for MP2-gradient calculations is turned on by default.

INFO   : the flag for use of LIBINT has been found!

----- Orbital basis set information -----
Your calculation utilizes the basis: def2-TZVP
   F. Weigend and R. Ahlrichs, Phys. Chem. Chem. Phys. 7, 3297 (2005).

================================================================================
                                        WARNINGS
                       Please study these warnings very carefully!
================================================================================


WARNING: The frozen-core approximation for MP2-gradient calculations is turned on by default.

INFO   : the flag for use of LIBINT has been found!

----- Orbital basis set information -----
Your calculation utilizes the basis: def2-TZVP
   F. Weigend and R. Ahlrichs, Phys. Chem. Chem. Phys. 7, 3297 (2005).

================================================================================
                                        WARNINGS
                       Please study these warnings very carefully!
================================================================================


WARNING: The frozen-core approximation for MP2-gradient calculations is turned on by default.

INFO   : the flag for use of LIBINT has been found!

----- Orbital basis set information -----
Your calculation utilizes the basis: def2-TZVP
   F. Weigend and R. Ahlrichs, Phys. Chem. Chem. Phys. 7, 3297 (2005).

================================================================================
                                        WARNINGS
                       Please study these warnings very carefully!
================================================================================


WARNING: The frozen-core approximation for MP2-gradient calculations is turned on by default.

INFO   : the flag for use of LIBINT has been found!

----- Orbital basis set information -----
Your calculation utilizes the basis: def2-TZVP
   F. Weigend and R. Ahlrichs, Phys. Chem. Chem. Phys. 7, 3297 (2005).

================================================================================
                                        WARNINGS
                       Please study these warnings very carefully!
================================================================================


WARNING: The frozen-core approximation for MP2-gradient calculations is turned on by default.

INFO   : the flag for use of LIBINT has been found!

----- Orbital basis set information -----
Your calculation utilizes the basis: def2-TZVP
   F. Weigend and R. Ahlrichs, Phys. Chem. Chem. Phys. 7, 3297 (2005).

================================================================================
                                        WARNINGS
                       Please study these warnings very carefully!
================================================================================


WARNING: The frozen-core approximation for MP2-gradient calculations is turned on by default.

INFO   : the flag for use of LIBINT has been found!

----- Orbital basis set information -----
Your calculation utilizes the basis: def2-TZVP
   F. Weigend and R. Ahlrichs, Phys. Chem. Chem. Phys. 7, 3297 (2005).

================================================================================
                                        WARNINGS
                       Please study these warnings very carefully!
================================================================================


WARNING: The frozen-core approximation for MP2-gradient calculations is turned on by default.

INFO   : the flag for use of LIBINT has been found!

----- Orbital basis set information -----
Your calculation utilizes the basis: def2-TZVP
   F. Weigend and R. Ahlrichs, Phys. Chem. Chem. Phys. 7, 3297 (2005).

================================================================================
                                        WARNINGS
                       Please study these warnings very carefully!
================================================================================


WARNING: The frozen-core approximation for MP2-gradient calculations is turned on by default.

INFO   : the flag for use of LIBINT has been found!

----- Orbital basis set information -----
Your calculation utilizes the basis: def2-TZVP
   F. Weigend and R. Ahlrichs, Phys. Chem. Chem. Phys. 7, 3297 (2005).

================================================================================
                                        WARNINGS
                       Please study these warnings very carefully!
================================================================================


WARNING: The frozen-core approximation for MP2-gradient calculations is turned on by default.

INFO   : the flag for use of LIBINT has been found!

----- Orbital basis set information -----
Your calculation utilizes the basis: def2-TZVP
   F. Weigend and R. Ahlrichs, Phys. Chem. Chem. Phys. 7, 3297 (2005).

================================================================================
                                        WARNINGS
                       Please study these warnings very carefully!
================================================================================


WARNING: The frozen-core approximation for MP2-gradient calculations is turned on by default.

INFO   : the flag for use of LIBINT has been found!

----- Orbital basis set information -----
Your calculation utilizes the basis: def2-TZVP
   F. Weigend and R. Ahlrichs, Phys. Chem. Chem. Phys. 7, 3297 (2005).

================================================================================
                                        WARNINGS
                       Please study these warnings very carefully!
================================================================================


WARNING: The frozen-core approximation for MP2-gradient calculations is turned on by default.

INFO   : the flag for use of LIBINT has been found!

----- Orbital basis set information -----
Your calculation utilizes the basis: def2-TZVP
   F. Weigend and R. Ahlrichs, Phys. Chem. Chem. Phys. 7, 3297 (2005).

================================================================================
                                        WARNINGS
                       Please study these warnings very carefully!
================================================================================


WARNING: The frozen-core approximation for MP2-gradient calculations is turned on by default.

INFO   : the flag for use of LIBINT has been found!

----- Orbital basis set information -----
Your calculation utilizes the basis: def2-TZVP
   F. Weigend and R. Ahlrichs, Phys. Chem. Chem. Phys. 7, 3297 (2005).

================================================================================
                                        WARNINGS
                       Please study these warnings very carefully!
================================================================================


WARNING: The frozen-core approximation for MP2-gradient calculations is turned on by default.

INFO   : the flag for use of LIBINT has been found!

----- Orbital basis set information -----
Your calculation utilizes the basis: def2-TZVP
   F. Weigend and R. Ahlrichs, Phys. Chem. Chem. Phys. 7, 3297 (2005).

================================================================================
                                        WARNINGS
                       Please study these warnings very carefully!
================================================================================


WARNING: The frozen-core approximation for MP2-gradient calculations is turned on by default.

INFO   : the flag for use of LIBINT has been found!

----- Orbital basis set information -----
Your calculation utilizes the basis: def2-TZVP
   F. Weigend and R. Ahlrichs, Phys. Chem. Chem. Phys. 7, 3297 (2005).

================================================================================
                                        WARNINGS
                       Please study these warnings very carefully!
================================================================================


WARNING: The frozen-core approximation for MP2-gradient calculations is turned on by default.

INFO   : the flag for use of LIBINT has been found!

----- Orbital basis set information -----
Your calculation utilizes the basis: def2-TZVP
   F. Weigend and R. Ahlrichs, Phys. Chem. Chem. Phys. 7, 3297 (2005).

================================================================================
                                        WARNINGS
                       Please study these warnings very carefully!
================================================================================


WARNING: The frozen-core approximation for MP2-gradient calculations is turned on by default.

INFO   : the flag for use of LIBINT has been found!

----- Orbital basis set information -----
Your calculation utilizes the basis: def2-TZVP
   F. Weigend and R. Ahlrichs, Phys. Chem. Chem. Phys. 7, 3297 (2005).

================================================================================
                                        WARNINGS
                       Please study these warnings very carefully!
================================================================================


WARNING: The frozen-core approximation for MP2-gradient calculations is turned on by default.

INFO   : the flag for use of LIBINT has been found!

----- Orbital basis set information -----
Your calculation utilizes the basis: def2-TZVP
   F. Weigend and R. Ahlrichs, Phys. Chem. Chem. Phys. 7, 3297 (2005).

================================================================================
                                        WARNINGS
                       Please study these warnings very carefully!
================================================================================


WARNING: The frozen-core approximation for MP2-gradient calculations is turned on by default.

INFO   : the flag for use of LIBINT has been found!

----- Orbital basis set information -----
Your calculation utilizes the basis: def2-TZVP
   F. Weigend and R. Ahlrichs, Phys. Chem. Chem. Phys. 7, 3297 (2005).

================================================================================
                                        WARNINGS
                       Please study these warnings very carefully!
================================================================================


WARNING: The frozen-core approximation for MP2-gradient calculations is turned on by default.

INFO   : the flag for use of LIBINT has been found!

----- Orbital basis set information -----
Your calculation utilizes the basis: def2-TZVP
   F. Weigend and R. Ahlrichs, Phys. Chem. Chem. Phys. 7, 3297 (2005).

================================================================================
                                        WARNINGS
                       Please study these warnings very carefully!
================================================================================


WARNING: The frozen-core approximation for MP2-gradient calculations is turned on by default.

INFO   : the flag for use of LIBINT has been found!

----- Orbital basis set information -----
Your calculation utilizes the basis: def2-TZVP
   F. Weigend and R. Ahlrichs, Phys. Chem. Chem. Phys. 7, 3297 (2005).

================================================================================
                                        WARNINGS
                       Please study these warnings very carefully!
================================================================================


WARNING: The frozen-core approximation for MP2-gradient calculations is turned on by default.

INFO   : the flag for use of LIBINT has been found!

----- Orbital basis set information -----
Your calculation utilizes the basis: def2-TZVP
   F. Weigend and R. Ahlrichs, Phys. Chem. Chem. Phys. 7, 3297 (2005).

================================================================================
                                        WARNINGS
                       Please study these warnings very carefully!
================================================================================


WARNING: The frozen-core approximation for MP2-gradient calculations is turned on by default.

INFO   : the flag for use of LIBINT has been found!

----- Orbital basis set information -----
Your calculation utilizes the basis: def2-TZVP
   F. Weigend and R. Ahlrichs, Phys. Chem. Chem. Phys. 7, 3297 (2005).

================================================================================
                                        WARNINGS
                       Please study these warnings very carefully!
================================================================================


WARNING: The frozen-core approximation for MP2-gradient calculations is turned on by default.

INFO   : the flag for use of LIBINT has been found!

----- Orbital basis set information -----
Your calculation utilizes the basis: def2-TZVP
   F. Weigend and R. Ahlrichs, Phys. Chem. Chem. Phys. 7, 3297 (2005).

================================================================================
                                        WARNINGS
                       Please study these warnings very carefully!
================================================================================


WARNING: The frozen-core approximation for MP2-gradient calculations is turned on by default.

INFO   : the flag for use of LIBINT has been found!

----- Orbital basis set information -----
Your calculation utilizes the basis: def2-TZVP
   F. Weigend and R. Ahlrichs, Phys. Chem. Chem. Phys. 7, 3297 (2005).

================================================================================
                                        WARNINGS
                       Please study these warnings very carefully!
================================================================================


WARNING: The frozen-core approximation for MP2-gradient calculations is turned on by default.

INFO   : the flag for use of LIBINT has been found!

----- Orbital basis set information -----
Your calculation utilizes the basis: def2-TZVP
   F. Weigend and R. Ahlrichs, Phys. Chem. Chem. Phys. 7, 3297 (2005).

================================================================================
                                        WARNINGS
                       Please study these warnings very carefully!
================================================================================


WARNING: The frozen-core approximation for MP2-gradient calculations is turned on by default.

INFO   : the flag for use of LIBINT has been found!

----- Orbital basis set information -----
Your calculation utilizes the basis: def2-TZVP
   F. Weigend and R. Ahlrichs, Phys. Chem. Chem. Phys. 7, 3297 (2005).

================================================================================
                                        WARNINGS
                       Please study these warnings very carefully!
================================================================================


WARNING: The frozen-core approximation for MP2-gradient calculations is turned on by default.

INFO   : the flag for use of LIBINT has been found!

----- Orbital basis set information -----
Your calculation utilizes the basis: def2-TZVP
   F. Weigend and R. Ahlrichs, Phys. Chem. Chem. Phys. 7, 3297 (2005).

================================================================================
                                        WARNINGS
                       Please study these warnings very carefully!
================================================================================


WARNING: The frozen-core approximation for MP2-gradient calculations is turned on by default.

INFO   : the flag for use of LIBINT has been found!

----- Orbital basis set information -----
Your calculation utilizes the basis: def2-TZVP
   F. Weigend and R. Ahlrichs, Phys. Chem. Chem. Phys. 7, 3297 (2005).

================================================================================
                                        WARNINGS
                       Please study these warnings very carefully!
================================================================================


WARNING: The frozen-core approximation for MP2-gradient calculations is turned on by default.

INFO   : the flag for use of LIBINT has been found!

----- Orbital basis set information -----
Your calculation utilizes the basis: def2-TZVP
   F. Weigend and R. Ahlrichs, Phys. Chem. Chem. Phys. 7, 3297 (2005).

================================================================================
                                        WARNINGS
                       Please study these warnings very carefully!
================================================================================


WARNING: The frozen-core approximation for MP2-gradient calculations is turned on by default.

INFO   : the flag for use of LIBINT has been found!

----- Orbital basis set information -----
Your calculation utilizes the basis: def2-TZVP
   F. Weigend and R. Ahlrichs, Phys. Chem. Chem. Phys. 7, 3297 (2005).

================================================================================
                                        WARNINGS
                       Please study these warnings very carefully!
================================================================================


WARNING: The frozen-core approximation for MP2-gradient calculations is turned on by default.

INFO   : the flag for use of LIBINT has been found!

----- Orbital basis set information -----
Your calculation utilizes the basis: def2-TZVP
   F. Weigend and R. Ahlrichs, Phys. Chem. Chem. Phys. 7, 3297 (2005).

================================================================================
                                        WARNINGS
                       Please study these warnings very carefully!
================================================================================


WARNING: The frozen-core approximation for MP2-gradient calculations is turned on by default.

INFO   : the flag for use of LIBINT has been found!

----- Orbital basis set information -----
Your calculation utilizes the basis: def2-TZVP
   F. Weigend and R. Ahlrichs, Phys. Chem. Chem. Phys. 7, 3297 (2005).

================================================================================
                                        WARNINGS
                       Please study these warnings very carefully!
================================================================================


WARNING: The frozen-core approximation for MP2-gradient calculations is turned on by default.

INFO   : the flag for use of LIBINT has been found!

----- Orbital basis set information -----
Your calculation utilizes the basis: def2-TZVP
   F. Weigend and R. Ahlrichs, Phys. Chem. Chem. Phys. 7, 3297 (2005).

================================================================================
                                        WARNINGS
                       Please study these warnings very carefully!
================================================================================


WARNING: The frozen-core approximation for MP2-gradient calculations is turned on by default.

INFO   : the flag for use of LIBINT has been found!

================================================================================
                                       INPUT FILE
================================================================================
NAME = 4meoh.boyd.etal.dset.1meoh.dset-orca.engrad-mp2.def2tzvp.inp
|  1> # 4meoh.boyd.etal.dset.1meoh.dset-orca.engrad-mp2.def2tzvp
|  2> ! MP2 def2-TZVP EnGrad TightSCF FrozenCore
|  3> 
|  4> %pal
|  5>     nprocs 12
|  6> end
|  7> 
|  8> %maxcore 8000
|  9> 
| 10> %scf
| 11>     ConvForced true
| 12> end
| 13> 
| 14> *xyz 0 1
| 15> O   0.254748627  -0.299343795   0.572145169
| 16> H   1.231760963  -0.116185782   0.562373955
| 17> C  -0.319257525   0.294773440  -0.585126288
| 18> H  -1.379570024   0.026931643  -0.604549160
| 19> H   0.147894747  -0.061511019  -1.514582981
| 20> H  -0.239782216   1.390147652  -0.553333738
| 21> *
| 22> 
| 23> 
| 24> $new_job
| 25> 
| 26> # 4meoh.boyd.etal.dset.1meoh.dset-orca.engrad-mp2.def2tzvp
| 27> ! MP2 def2-TZVP EnGrad TightSCF FrozenCore
| 28> 
| 29> %pal
| 30>     nprocs 12
| 31> end
| 32> 
| 33> %maxcore 8000
| 34> 
| 35> %scf
| 36>     ConvForced true
| 37> end
| 38> 
| 39> *xyz 0 1
| 40> O   0.314790644   0.216968044  -0.579248221
| 41> H   0.138212549   1.193650090  -0.635746070
| 42> C  -0.310830058  -0.280547237   0.596422819
| 43> H  -0.084686058  -1.348389730   0.666608269
| 44> H  -1.401967923  -0.160834819   0.549724523
| 45> H   0.055180303   0.214349913   1.507651665
| 46> *
| 47> 
| 48> 
| 49> $new_job
| 50> 
| 51> # 4meoh.boyd.etal.dset.1meoh.dset-orca.engrad-mp2.def2tzvp
| 52> ! MP2 def2-TZVP EnGrad TightSCF FrozenCore
| 53> 
| 54> %pal
| 55>     nprocs 12
| 56> end
| 57> 
| 58> %maxcore 8000
| 59> 
| 60> %scf
| 61>     ConvForced true
| 62> end
| 63> 
| 64> *xyz 0 1
| 65> O  -0.192662981   0.347842494   0.568955662
| 66> H  -1.165673887   0.174112094   0.674281488
| 67> C   0.255480747  -0.344874972  -0.588857043
| 68> H   1.316061101  -0.114253123  -0.724212012
| 69> H  -0.286881314  -0.040093448  -1.495468380
| 70> H   0.150582889  -1.432025434  -0.469604626
| 71> *
| 72> 
| 73> 
| 74> $new_job
| 75> 
| 76> # 4meoh.boyd.etal.dset.1meoh.dset-orca.engrad-mp2.def2tzvp
| 77> ! MP2 def2-TZVP EnGrad TightSCF FrozenCore
| 78> 
| 79> %pal
| 80>     nprocs 12
| 81> end
| 82> 
| 83> %maxcore 8000
| 84> 
| 85> %scf
| 86>     ConvForced true
| 87> end
| 88> 
| 89> *xyz 0 1
| 90> O  -0.344794639  -0.237909563  -0.553496096
| 91> H  -0.174960987  -1.216886097  -0.577230193
| 92> C   0.341956862   0.302163096   0.568174992
| 93> H   0.128159586   1.374234530   0.603765015
| 94> H   1.428334922   0.169103210   0.473260498
| 95> H   0.017115709  -0.150367826   1.516245182
| 96> *
| 97> 
| 98> 
| 99> $new_job
|100> 
|101> # 4meoh.boyd.etal.dset.1meoh.dset-orca.engrad-mp2.def2tzvp
|102> ! MP2 def2-TZVP EnGrad TightSCF FrozenCore
|103> 
|104> %pal
|105>     nprocs 12
|106> end
|107> 
|108> %maxcore 8000
|109> 
|110> %scf
|111>     ConvForced true
|112> end
|113> 
|114> *xyz 0 1
|115> O  -0.309400314   0.153694686   0.601337880
|116> H   0.416016319   0.231658304   1.274857753
|117> C   0.273188844  -0.161177861  -0.655564767
|118> H  -0.534848095  -0.219317385  -1.390345891
|119> H   0.783927630  -1.133801373  -0.628124555
|120> H   0.991135461   0.602246838  -0.990543682
|121> *
|122> 
|123> 
|124> $new_job
|125> 
|126> # 4meoh.boyd.etal.dset.1meoh.dset-orca.engrad-mp2.def2tzvp
|127> ! MP2 def2-TZVP EnGrad TightSCF FrozenCore
|128> 
|129> %pal
|130>     nprocs 12
|131> end
|132> 
|133> %maxcore 8000
|134> 
|135> %scf
|136>     ConvForced true
|137> end
|138> 
|139> *xyz 0 1
|140> O   0.661526924   0.115219609  -0.174906690
|141> H   1.030338424  -0.772396872  -0.424954332
|142> C  -0.698469979  -0.064551110   0.194823720
|143> H  -1.095939758   0.911891197   0.487190036
|144> H  -0.816681262  -0.758773856   1.039868507
|145> H  -1.296083066  -0.440580129  -0.647089084
|146> *
|147> 
|148> 
|149> $new_job
|150> 
|151> # 4meoh.boyd.etal.dset.1meoh.dset-orca.engrad-mp2.def2tzvp
|152> ! MP2 def2-TZVP EnGrad TightSCF FrozenCore
|153> 
|154> %pal
|155>     nprocs 12
|156> end
|157> 
|158> %maxcore 8000
|159> 
|160> %scf
|161>     ConvForced true
|162> end
|163> 
|164> *xyz 0 1
|165> O   0.310551786  -0.151210272  -0.601377472
|166> H  -0.413862026  -0.228648966  -1.276056902
|167> C  -0.274426379   0.158606403   0.655673012
|168> H   0.532439562   0.215853655   1.391810653
|169> H  -0.991467199  -0.607182183   0.987158241
|170> H  -0.786874088   1.130394044   0.630583010
|171> *
|172> 
|173> 
|174> $new_job
|175> 
|176> # 4meoh.boyd.etal.dset.1meoh.dset-orca.engrad-mp2.def2tzvp
|177> ! MP2 def2-TZVP EnGrad TightSCF FrozenCore
|178> 
|179> %pal
|180>     nprocs 12
|181> end
|182> 
|183> %maxcore 8000
|184> 
|185> %scf
|186>     ConvForced true
|187> end
|188> 
|189> *xyz 0 1
|190> O  -0.661859832  -0.113766903   0.174574793
|191> H  -1.029193887   0.774608761   0.424165827
|192> C   0.698710685   0.063020215  -0.194461333
|193> H   1.094977818  -0.914731443  -0.484077511
|194> H   1.296237529   0.440210901   0.646996270
|195> H   0.818760671   0.754952775  -1.041149250
|196> *
|197> 
|198> 
|199> $new_job
|200> 
|201> # 4meoh.boyd.etal.dset.1meoh.dset-orca.engrad-mp2.def2tzvp
|202> ! MP2 def2-TZVP EnGrad TightSCF FrozenCore
|203> 
|204> %pal
|205>     nprocs 12
|206> end
|207> 
|208> %maxcore 8000
|209> 
|210> %scf
|211>     ConvForced true
|212> end
|213> 
|214> *xyz 0 1
|215> O  -0.038881200  -0.060893893   0.690859142
|216> H   0.899026368  -0.021143026   1.014645813
|217> C  -0.016635302   0.060629594  -0.726484618
|218> H  -1.053472908   0.070278174  -1.074405743
|219> H   0.496888677  -0.791869129  -1.191803797
|220> H   0.473009533   0.986925571  -1.058610979
|221> *
|222> 
|223> 
|224> $new_job
|225> 
|226> # 4meoh.boyd.etal.dset.1meoh.dset-orca.engrad-mp2.def2tzvp
|227> ! MP2 def2-TZVP EnGrad TightSCF FrozenCore
|228> 
|229> %pal
|230>     nprocs 12
|231> end
|232> 
|233> %maxcore 8000
|234> 
|235> %scf
|236>     ConvForced true
|237> end
|238> 
|239> *xyz 0 1
|240> O   0.484113097   0.244992413  -0.431978236
|241> H   0.722187562  -0.513443673  -1.028374033
|242> C  -0.508678258  -0.205103345   0.478130070
|243> H  -0.748483731   0.626087706   1.147890622
|244> H  -0.168811959  -1.057137176   1.085888909
|245> H  -1.428480500  -0.500609085  -0.045417922
|246> *
|247> 
|248> 
|249> $new_job
|250> 
|251> # 4meoh.boyd.etal.dset.1meoh.dset-orca.engrad-mp2.def2tzvp
|252> ! MP2 def2-TZVP EnGrad TightSCF FrozenCore
|253> 
|254> %pal
|255>     nprocs 12
|256> end
|257> 
|258> %maxcore 8000
|259> 
|260> %scf
|261>     ConvForced true
|262> end
|263> 
|264> *xyz 0 1
|265> O  -0.008834286  -0.054624894  -0.690579793
|266> H  -0.963640168  -0.126099330  -0.952007119
|267> C   0.066246481   0.059227787   0.721718484
|268> H   1.123044988   0.136934088   0.993516576
|269> H  -0.362038417  -0.812213125   1.240786109
|270> H  -0.446530693   0.962756439   1.080238689
|271> *
|272> 
|273> 
|274> $new_job
|275> 
|276> # 4meoh.boyd.etal.dset.1meoh.dset-orca.engrad-mp2.def2tzvp
|277> ! MP2 def2-TZVP EnGrad TightSCF FrozenCore
|278> 
|279> %pal
|280>     nprocs 12
|281> end
|282> 
|283> %maxcore 8000
|284> 
|285> %scf
|286>     ConvForced true
|287> end
|288> 
|289> *xyz 0 1
|290> O  -0.307322584   0.438700947  -0.440292648
|291> H  -0.501131817   1.261737765   0.079094286
|292> C   0.325301352  -0.498213307   0.419454180
|293> H   0.514593750  -1.405741443  -0.160769715
|294> H  -0.299607938  -0.765176859   1.285054530
|295> H   1.288412362  -0.118211778   0.787788517
|296> *
|297> 
|298> 
|299> $new_job
|300> 
|301> # 4meoh.boyd.etal.dset.1meoh.dset-orca.engrad-mp2.def2tzvp
|302> ! MP2 def2-TZVP EnGrad TightSCF FrozenCore
|303> 
|304> %pal
|305>     nprocs 12
|306> end
|307> 
|308> %maxcore 8000
|309> 
|310> %scf
|311>     ConvForced true
|312> end
|313> 
|314> *xyz 0 1
|315> O  -0.161245517   0.314868367   0.596827345
|316> H   0.708638431   0.509129794   1.030236084
|317> C   0.112620462  -0.334180251  -0.635846994
|318> H  -0.845444204  -0.583163883  -1.101440257
|319> H   0.687914141  -1.263502441  -0.503940932
|320> H   0.666590053   0.321286609  -1.322368920
|321> *
|322> 
|323> 
|324> $new_job
|325> 
|326> # 4meoh.boyd.etal.dset.1meoh.dset-orca.engrad-mp2.def2tzvp
|327> ! MP2 def2-TZVP EnGrad TightSCF FrozenCore
|328> 
|329> %pal
|330>     nprocs 12
|331> end
|332> 
|333> %maxcore 8000
|334> 
|335> %scf
|336>     ConvForced true
|337> end
|338> 
|339> *xyz 0 1
|340> O   0.543618698   0.387717877   0.180034491
|341> H   0.711789165   1.023578142  -0.561595373
|342> C  -0.565336193  -0.434971547  -0.140068860
|343> H  -0.736512482  -1.106024874   0.706689854
|344> H  -0.392036393  -1.048724473  -1.037638538
|345> H  -1.476308942   0.159513357  -0.296341324
|346> *
|347> 
|348> 
|349> $new_job
|350> 
|351> # 4meoh.boyd.etal.dset.1meoh.dset-orca.engrad-mp2.def2tzvp
|352> ! MP2 def2-TZVP EnGrad TightSCF FrozenCore
|353> 
|354> %pal
|355>     nprocs 12
|356> end
|357> 
|358> %maxcore 8000
|359> 
|360> %scf
|361>     ConvForced true
|362> end
|363> 
|364> *xyz 0 1
|365> O  -0.161737327   0.575557812   0.352010061
|366> H  -1.140571073   0.681977377   0.238428755
|367> C   0.224200305  -0.594415553  -0.353628678
|368> H   1.309437227  -0.696484164  -0.261400244
|369> H  -0.031462148  -0.544840051  -1.423296869
|370> H  -0.241503508  -1.494226811   0.072160812
|371> *
|372> 
|373> 
|374> $new_job
|375> 
|376> # 4meoh.boyd.etal.dset.1meoh.dset-orca.engrad-mp2.def2tzvp
|377> ! MP2 def2-TZVP EnGrad TightSCF FrozenCore
|378> 
|379> %pal
|380>     nprocs 12
|381> end
|382> 
|383> %maxcore 8000
|384> 
|385> %scf
|386>     ConvForced true
|387> end
|388> 
|389> *xyz 0 1
|390> O  -0.666298167  -0.051376607   0.177872757
|391> H  -0.765495655  -0.876728639   0.717837287
|392> C   0.686989686   0.101451013  -0.214834437
|393> H   0.764126819   1.031013927  -0.786309712
|394> H   1.039139482  -0.725340783  -0.851055594
|395> H   1.353137673   0.177728958   0.655879096
|396> *
|397> 
|398> 
|399> $new_job
|400> 
|401> # 4meoh.boyd.etal.dset.1meoh.dset-orca.engrad-mp2.def2tzvp
|402> ! MP2 def2-TZVP EnGrad TightSCF FrozenCore
|403> 
|404> %pal
|405>     nprocs 12
|406> end
|407> 
|408> %maxcore 8000
|409> 
|410> %scf
|411>     ConvForced true
|412> end
|413> 
|414> *xyz 0 1
|415> O  -0.147624630   0.384689288   0.557439127
|416> H  -1.134852200   0.448726650   0.587532694
|417> C   0.210052021  -0.396672253  -0.572057017
|418> H   1.302133724  -0.449994786  -0.605473678
|419> H  -0.143306930   0.041889217  -1.517331936
|420> H  -0.183513674  -1.420582561  -0.497102629
|421> *
|422> 
|423> 
|424> $new_job
|425> 
|426> # 4meoh.boyd.etal.dset.1meoh.dset-orca.engrad-mp2.def2tzvp
|427> ! MP2 def2-TZVP EnGrad TightSCF FrozenCore
|428> 
|429> %pal
|430>     nprocs 12
|431> end
|432> 
|433> %maxcore 8000
|434> 
|435> %scf
|436>     ConvForced true
|437> end
|438> 
|439> *xyz 0 1
|440> O   0.254213520   0.132062139  -0.633028193
|441> H   0.045100018   1.079767960  -0.806786596
|442> C  -0.247239159  -0.191765598   0.658650067
|443> H   0.047213241  -1.221950517   0.876247901
|444> H  -1.344257461  -0.131179621   0.690033304
|445> H   0.162558656   0.462044899   1.440966979
|446> *
|447> 
|448> 
|449> $new_job
|450> 
|451> # 4meoh.boyd.etal.dset.1meoh.dset-orca.engrad-mp2.def2tzvp
|452> ! MP2 def2-TZVP EnGrad TightSCF FrozenCore
|453> 
|454> %pal
|455>     nprocs 12
|456> end
|457> 
|458> %maxcore 8000
|459> 
|460> %scf
|461>     ConvForced true
|462> end
|463> 
|464> *xyz 0 1
|465> O  -0.468981698  -0.427574276   0.296875037
|466> H  -1.322394706  -0.219001554  -0.111357277
|467> C   0.533710342   0.426852645  -0.280229540
|468> H   1.499769768   0.105734025   0.118021825
|469> H   0.354177137   1.474241840  -0.005397853
|470> H   0.553545165   0.340133144  -1.374766405
|471> *
|472> 
|473> 
|474> $new_job
|475> 
|476> # 4meoh.boyd.etal.dset.1meoh.dset-orca.engrad-mp2.def2tzvp
|477> ! MP2 def2-TZVP EnGrad TightSCF FrozenCore
|478> 
|479> %pal
|480>     nprocs 12
|481> end
|482> 
|483> %maxcore 8000
|484> 
|485> %scf
|486>     ConvForced true
|487> end
|488> 
|489> *xyz 0 1
|490> O  -0.324925622  -0.084297177  -0.604522934
|491> H  -0.531220106  -1.047103388  -0.653504612
|492> C   0.343308498   0.143230426   0.619457970
|493> H   0.562322049   1.214348147   0.686217788
|494> H   1.298909154  -0.401512601   0.684813637
|495> H  -0.262880364  -0.134309573   1.497445916
|496> *
|497> 
|498> 
|499> $new_job
|500> 
|501> # 4meoh.boyd.etal.dset.1meoh.dset-orca.engrad-mp2.def2tzvp
|502> ! MP2 def2-TZVP EnGrad TightSCF FrozenCore
|503> 
|504> %pal
|505>     nprocs 12
|506> end
|507> 
|508> %maxcore 8000
|509> 
|510> %scf
|511>     ConvForced true
|512> end
|513> 
|514> *xyz 0 1
|515> O  -0.003776884   0.192252233   0.666820769
|516> H   0.941857775   0.217645605   0.958270928
|517> C  -0.052828328  -0.197738714  -0.700230816
|518> H  -1.098337947  -0.154437861  -1.017718633
|519> H   0.307279739  -1.226403385  -0.836227868
|520> H   0.538668573   0.467563018  -1.345745156
|521> *
|522> 
|523> 
|524> $new_job
|525> 
|526> # 4meoh.boyd.etal.dset.1meoh.dset-orca.engrad-mp2.def2tzvp
|527> ! MP2 def2-TZVP EnGrad TightSCF FrozenCore
|528> 
|529> %pal
|530>     nprocs 12
|531> end
|532> 
|533> %maxcore 8000
|534> 
|535> %scf
|536>     ConvForced true
|537> end
|538> 
|539> *xyz 0 1
|540> O   0.510625510   0.456894067   0.107231857
|541> H   0.522044690   1.013708686  -0.696180873
|542> C  -0.522148350  -0.499808466  -0.062128599
|543> H  -0.460344149  -1.199792179   0.777073992
|544> H  -0.420544434  -1.069309864  -0.997899801
|545> H  -1.525105967  -0.041798783  -0.044917896
|546> *
|547> 
|548> 
|549> $new_job
|550> 
|551> # 4meoh.boyd.etal.dset.1meoh.dset-orca.engrad-mp2.def2tzvp
|552> ! MP2 def2-TZVP EnGrad TightSCF FrozenCore
|553> 
|554> %pal
|555>     nprocs 12
|556> end
|557> 
|558> %maxcore 8000
|559> 
|560> %scf
|561>     ConvForced true
|562> end
|563> 
|564> *xyz 0 1
|565> O   0.283498117  -0.557446823   0.300727205
|566> H  -0.014694693  -1.358024657  -0.200804333
|567> C  -0.272702904   0.619261093  -0.278117294
|568> H   0.097317856   1.472121080   0.296100851
|569> H  -1.369769757   0.614777126  -0.229958713
|570> H   0.036311057   0.741132024  -1.325158935
|571> *
|572> 
|573> 
|574> $new_job
|575> 
|576> # 4meoh.boyd.etal.dset.1meoh.dset-orca.engrad-mp2.def2tzvp
|577> ! MP2 def2-TZVP EnGrad TightSCF FrozenCore
|578> 
|579> %pal
|580>     nprocs 12
|581> end
|582> 
|583> %maxcore 8000
|584> 
|585> %scf
|586>     ConvForced true
|587> end
|588> 
|589> *xyz 0 1
|590> O  -0.218931194   0.166788936  -0.642670334
|591> H  -0.712534547   1.005664939  -0.537343238
|592> C   0.253969544  -0.221961488   0.654392518
|593> H   0.603847598  -1.254393662   0.571442458
|594> H  -0.542315530  -0.160037082   1.404918496
|595> H   1.100095696   0.405995021   0.965242467
|596> *
|597> 
|598> 
|599> $new_job
|600> 
|601> # 4meoh.boyd.etal.dset.1meoh.dset-orca.engrad-mp2.def2tzvp
|602> ! MP2 def2-TZVP EnGrad TightSCF FrozenCore
|603> 
|604> %pal
|605>     nprocs 12
|606> end
|607> 
|608> %maxcore 8000
|609> 
|610> %scf
|611>     ConvForced true
|612> end
|613> 
|614> *xyz 0 1
|615> O  -0.035876697   0.127260459   0.681478413
|616> H   0.889829193   0.085198640   1.045714612
|617> C  -0.018979397  -0.127849879  -0.720357065
|618> H  -1.045459406  -0.034830010  -1.084216724
|619> H   0.339593390  -1.141754803  -0.940268662
|620> H   0.611725948   0.594662493  -1.255505859
|621> *
|622> 
|623> 
|624> $new_job
|625> 
|626> # 4meoh.boyd.etal.dset.1meoh.dset-orca.engrad-mp2.def2tzvp
|627> ! MP2 def2-TZVP EnGrad TightSCF FrozenCore
|628> 
|629> %pal
|630>     nprocs 12
|631> end
|632> 
|633> %maxcore 8000
|634> 
|635> %scf
|636>     ConvForced true
|637> end
|638> 
|639> *xyz 0 1
|640> O   0.435653323  -0.455566249  -0.288916930
|641> H   0.666822299  -0.068290819  -1.156090825
|642> C  -0.458619418   0.442631592   0.346409774
|643> H  -0.627425576   0.071959451   1.362442004
|644> H  -1.436466799   0.490451462  -0.161079609
|645> H  -0.053750306   1.463323270   0.413281175
|646> *
|647> 
|648> 
|649> $new_job
|650> 
|651> # 4meoh.boyd.etal.dset.1meoh.dset-orca.engrad-mp2.def2tzvp
|652> ! MP2 def2-TZVP EnGrad TightSCF FrozenCore
|653> 
|654> %pal
|655>     nprocs 12
|656> end
|657> 
|658> %maxcore 8000
|659> 
|660> %scf
|661>     ConvForced true
|662> end
|663> 
|664> *xyz 0 1
|665> O   0.035945318  -0.657806300   0.218068207
|666> H  -0.309564282  -1.219084391  -0.508308408
|667> C  -0.015873441   0.706907894  -0.180355858
|668> H   0.391746296   1.299830453   0.642403155
|669> H  -1.047719903   1.035621882  -0.365611545
|670> H   0.584072038   0.902386717  -1.081070592
|671> *
|672> 
|673> 
|674> $new_job
|675> 
|676> # 4meoh.boyd.etal.dset.1meoh.dset-orca.engrad-mp2.def2tzvp
|677> ! MP2 def2-TZVP EnGrad TightSCF FrozenCore
|678> 
|679> %pal
|680>     nprocs 12
|681> end
|682> 
|683> %maxcore 8000
|684> 
|685> %scf
|686>     ConvForced true
|687> end
|688> 
|689> *xyz 0 1
|690> O  -0.021141567   0.445271089  -0.538430197
|691> H  -0.529943429   1.225017504  -0.220577805
|692> C   0.050772968  -0.504383482   0.534205779
|693> H   0.672299599  -1.332797290   0.183759407
|694> H  -0.941471088  -0.888154300   0.801121347
|695> H   0.529708589  -0.062231554   1.417355993
|696> *
|697> 
|698> 
|699> $new_job
|700> 
|701> # 4meoh.boyd.etal.dset.1meoh.dset-orca.engrad-mp2.def2tzvp
|702> ! MP2 def2-TZVP EnGrad TightSCF FrozenCore
|703> 
|704> %pal
|705>     nprocs 12
|706> end
|707> 
|708> %maxcore 8000
|709> 
|710> %scf
|711>     ConvForced true
|712> end
|713> 
|714> *xyz 0 1
|715> O   0.130182621   0.137933281   0.668363252
|716> H   0.947730637  -0.355910653   0.896445079
|717> C  -0.181770834  -0.111252209  -0.698104623
|718> H  -1.063186733   0.486892968  -0.944233653
|719> H  -0.422192623  -1.169106553  -0.869128420
|720> H   0.637068608   0.174193277  -1.374326098
|721> *
|722> 
|723> 
|724> $new_job
|725> 
|726> # 4meoh.boyd.etal.dset.1meoh.dset-orca.engrad-mp2.def2tzvp
|727> ! MP2 def2-TZVP EnGrad TightSCF FrozenCore
|728> 
|729> %pal
|730>     nprocs 12
|731> end
|732> 
|733> %maxcore 8000
|734> 
|735> %scf
|736>     ConvForced true
|737> end
|738> 
|739> *xyz 0 1
|740> O  -0.620802941  -0.303056317   0.014333265
|741> H  -1.209998228   0.335037062   0.461519763
|742> C   0.667288925   0.271390054  -0.040958376
|743> H   1.333000042  -0.457351968  -0.514781990
|744> H   1.079419946   0.503184327   0.955846167
|745> H   0.701027009   1.196088343  -0.642051144
|746> *
|747> 
|748> 
|749> $new_job
|750> 
|751> # 4meoh.boyd.etal.dset.1meoh.dset-orca.engrad-mp2.def2tzvp
|752> ! MP2 def2-TZVP EnGrad TightSCF FrozenCore
|753> 
|754> %pal
|755>     nprocs 12
|756> end
|757> 
|758> %maxcore 8000
|759> 
|760> %scf
|761>     ConvForced true
|762> end
|763> 
|764> *xyz 0 1
|765> O  -0.145983924  -0.505483083   0.453176569
|766> H  -0.927918008  -0.986477644   0.092448237
|767> C   0.196498167   0.545840435  -0.442761553
|768> H   1.091793453   1.033314691  -0.047965365
|769> H  -0.604861997   1.294240092  -0.506523957
|770> H   0.416912089   0.178919810  -1.455918485
|771> *
|772> 
|773> 
|774> $new_job
|775> 
|776> # 4meoh.boyd.etal.dset.1meoh.dset-orca.engrad-mp2.def2tzvp
|777> ! MP2 def2-TZVP EnGrad TightSCF FrozenCore
|778> 
|779> %pal
|780>     nprocs 12
|781> end
|782> 
|783> %maxcore 8000
|784> 
|785> %scf
|786>     ConvForced true
|787> end
|788> 
|789> *xyz 0 1
|790> O  -0.164966927   0.271054343  -0.619375873
|791> H  -0.291131279   1.245508853  -0.490582614
|792> C   0.175913381  -0.337153463   0.628420863
|793> H   0.421620860  -1.379727642   0.415901340
|794> H  -0.659702889  -0.296495652   1.338700871
|795> H   1.051777870   0.145422791   1.079933784
|796> *
|797> 
|798> 
|799> $new_job
|800> 
|801> # 4meoh.boyd.etal.dset.1meoh.dset-orca.engrad-mp2.def2tzvp
|802> ! MP2 def2-TZVP EnGrad TightSCF FrozenCore
|803> 
|804> %pal
|805>     nprocs 12
|806> end
|807> 
|808> %maxcore 8000
|809> 
|810> %scf
|811>     ConvForced true
|812> end
|813> 
|814> *xyz 0 1
|815> O  -0.007690424   0.058913185   0.694556620
|816> H   0.942005945   0.060799161   0.985061046
|817> C  -0.049109981  -0.060817115  -0.730559763
|818> H  -1.074611603   0.146537448  -1.047038560
|819> H   0.215748398  -1.076884284  -1.045513330
|820> H   0.624142689   0.659033513  -1.212819587
|821> *
|822> 
|823> 
|824> $new_job
|825> 
|826> # 4meoh.boyd.etal.dset.1meoh.dset-orca.engrad-mp2.def2tzvp
|827> ! MP2 def2-TZVP EnGrad TightSCF FrozenCore
|828> 
|829> %pal
|830>     nprocs 12
|831> end
|832> 
|833> %maxcore 8000
|834> 
|835> %scf
|836>     ConvForced true
|837> end
|838> 
|839> *xyz 0 1
|840> O   0.674414545   0.057629975  -0.139260644
|841> H   0.862379478   1.016887515  -0.136552979
|842> C  -0.698567443  -0.115147936   0.141896791
|843> H  -0.907682880  -1.189514756   0.111955359
|844> H  -1.354658304   0.375186773  -0.597127953
|845> H  -0.981828034   0.254712410   1.141561581
|846> *
|847> 
|848> 
|849> $new_job
|850> 
|851> # 4meoh.boyd.etal.dset.1meoh.dset-orca.engrad-mp2.def2tzvp
|852> ! MP2 def2-TZVP EnGrad TightSCF FrozenCore
|853> 
|854> %pal
|855>     nprocs 12
|856> end
|857> 
|858> %maxcore 8000
|859> 
|860> %scf
|861>     ConvForced true
|862> end
|863> 
|864> *xyz 0 1
|865> O   0.105793222  -0.604595560   0.324621120
|866> H  -0.320182883  -1.294579704  -0.229054621
|867> C  -0.082531661   0.659929089  -0.299720440
|868> H   0.429657773   1.404824030   0.314803298
|869> H  -1.146445712   0.928791843  -0.353215787
|870> H   0.341010450   0.694828444  -1.314232802
|871> *
|872> 
|873> 
|874> $new_job
|875> 
|876> # 4meoh.boyd.etal.dset.1meoh.dset-orca.engrad-mp2.def2tzvp
|877> ! MP2 def2-TZVP EnGrad TightSCF FrozenCore
|878> 
|879> %pal
|880>     nprocs 12
|881> end
|882> 
|883> %maxcore 8000
|884> 
|885> %scf
|886>     ConvForced true
|887> end
|888> 
|889> *xyz 0 1
|890> O  -0.218672576   0.326060241  -0.574136786
|891> H  -0.739164704   1.105072073  -0.267592139
|892> C   0.254800346  -0.380970320   0.570005080
|893> H   0.758990028  -1.281351856   0.210301809
|894> H  -0.561953661  -0.680297217   1.241141002
|895> H   0.977216122   0.220219619   1.138044324
|896> *
|897> 
|898> 
|899> $new_job
|900> 
|901> # 4meoh.boyd.etal.dset.1meoh.dset-orca.engrad-mp2.def2tzvp
|902> ! MP2 def2-TZVP EnGrad TightSCF FrozenCore
|903> 
|904> %pal
|905>     nprocs 12
|906> end
|907> 
|908> %maxcore 8000
|909> 
|910> %scf
|911>     ConvForced true
|912> end
|913> 
|914> *xyz 0 1
|915> O   0.058404837   0.009782647   0.691758068
|916> H   1.022323704  -0.049956644   0.891212538
|917> C  -0.117411619  -0.005723567  -0.720096716
|918> H  -1.185560532   0.117412697  -0.918151947
|919> H   0.206164084  -0.961743593  -1.153451998
|920> H   0.429018517   0.807195230  -1.220172736
|921> *
|922> 
|923> 
|924> $new_job
|925> 
|926> # 4meoh.boyd.etal.dset.1meoh.dset-orca.engrad-mp2.def2tzvp
|927> ! MP2 def2-TZVP EnGrad TightSCF FrozenCore
|928> 
|929> %pal
|930>     nprocs 12
|931> end
|932> 
|933> %maxcore 8000
|934> 
|935> %scf
|936>     ConvForced true
|937> end
|938> 
|939> *xyz 0 1
|940> O  -0.507625088   0.147382061  -0.445046499
|941> H  -0.327416378  -0.399693719  -1.233960123
|942> C   0.506814541  -0.118164771   0.500087499
|943> H   0.329527809   0.530149333   1.364407857
|944> H   1.518664850   0.099978321   0.118414732
|945> H   0.498263537  -1.161988931   0.856929586
|946> *
|947> 
|948> 
|949> $new_job
|950> 
|951> # 4meoh.boyd.etal.dset.1meoh.dset-orca.engrad-mp2.def2tzvp
|952> ! MP2 def2-TZVP EnGrad TightSCF FrozenCore
|953> 
|954> %pal
|955>     nprocs 12
|956> end
|957> 
|958> %maxcore 8000
|959> 
|960> %scf
|961>     ConvForced true
|962> end
|963> 
|964> *xyz 0 1
|965> O   0.103660521  -0.591486768   0.353402608
|966> H  -0.272650806  -1.324859604  -0.196175848
|967> C  -0.082431736   0.651342845  -0.330497227
|968> H   0.164420288   1.443895489   0.378380031
|969> H  -1.125582228   0.779720369  -0.644165402
|970> H   0.570517366   0.729327093  -1.209890885
|971> *
|972> 
|973> 
|974> $new_job
|975> 
|976> # 4meoh.boyd.etal.dset.1meoh.dset-orca.engrad-mp2.def2tzvp
|977> ! MP2 def2-TZVP EnGrad TightSCF FrozenCore
|978> 
|979> %pal
|980>     nprocs 12
|981> end
|982> 
|983> %maxcore 8000
|984> 
|985> %scf
|986>     ConvForced true
|987> end
|988> 
|989> *xyz 0 1
|990> O  -0.311539191   0.306484936  -0.540186091
|991> H  -0.845844157   1.043231982  -0.169717099
|992> C   0.350442713  -0.358092503   0.531260685
|993> H   0.898655262  -1.200328096   0.101111303
|994> H  -0.353386057  -0.745172834   1.281746309
|995> H   1.070189246   0.304045060   1.031486769
|996> *
|997> 
|998> 
|999> $new_job
|1000> 
|1001> # 4meoh.boyd.etal.dset.1meoh.dset-orca.engrad-mp2.def2tzvp
|1002> ! MP2 def2-TZVP EnGrad TightSCF FrozenCore
|1003> 
|1004> %pal
|1005>     nprocs 12
|1006> end
|1007> 
|1008> %maxcore 8000
|1009> 
|1010> %scf
|1011>     ConvForced true
|1012> end
|1013> 
|1014> *xyz 0 1
|1015> O  -0.035454780  -0.232914129   0.652753069
|1016> H   0.889034992  -0.409698311   0.932011045
|1017> C  -0.018720471   0.249389099  -0.684447892
|1018> H  -1.050715486   0.483186076  -0.959254411
|1019> H   0.360453380  -0.509164597  -1.382923219
|1020> H   0.587133060   1.161324562  -0.796007549
|1021> *
|1022> 
|1023> 
|1024> $new_job
|1025> 
|1026> # 4meoh.boyd.etal.dset.1meoh.dset-orca.engrad-mp2.def2tzvp
|1027> ! MP2 def2-TZVP EnGrad TightSCF FrozenCore
|1028> 
|1029> %pal
|1030>     nprocs 12
|1031> end
|1032> 
|1033> %maxcore 8000
|1034> 
|1035> %scf
|1036>     ConvForced true
|1037> end
|1038> 
|1039> *xyz 0 1
|1040> O   0.145602113  -0.670983059   0.098578158
|1041> H  -0.221763296  -1.158875131  -0.675194207
|1042> C  -0.126593671   0.715968902  -0.054979503
|1043> H   0.333735774   1.235076456   0.789683226
|1044> H  -1.206226139   0.917801139  -0.037620534
|1045> H   0.291394858   1.125955034  -0.986609186
|1046> *
|1047> 
|1048> 
|1049> $new_job
|1050> 
|1051> # 4meoh.boyd.etal.dset.1meoh.dset-orca.engrad-mp2.def2tzvp
|1052> ! MP2 def2-TZVP EnGrad TightSCF FrozenCore
|1053> 
|1054> %pal
|1055>     nprocs 12
|1056> end
|1057> 
|1058> %maxcore 8000
|1059> 
|1060> %scf
|1061>     ConvForced true
|1062> end
|1063> 
|1064> *xyz 0 1
|1065> O  -0.617269530  -0.312397120   0.078241456
|1066> H  -1.215298776   0.344817502   0.513139753
|1067> C   0.669599197   0.281523290  -0.106677461
|1068> H   1.282788664  -0.435493717  -0.658001880
|1069> H   1.144320049   0.482768530   0.860703526
|1070> H   0.608017827   1.212397283  -0.686703604
|1071> *
|1072> 
|1073> 
|1074> $new_job
|1075> 
|1076> # 4meoh.boyd.etal.dset.1meoh.dset-orca.engrad-mp2.def2tzvp
|1077> ! MP2 def2-TZVP EnGrad TightSCF FrozenCore
|1078> 
|1079> %pal
|1080>     nprocs 12
|1081> end
|1082> 
|1083> %maxcore 8000
|1084> 
|1085> %scf
|1086>     ConvForced true
|1087> end
|1088> 
|1089> *xyz 0 1
|1090> O   0.600397116  -0.042309891  -0.343652081
|1091> H   0.352983237  -0.023713152  -1.286954215
|1092> C  -0.598274641   0.041863746   0.406706042
|1093> H  -0.319857158   0.214340544   1.451546349
|1094> H  -1.189669313  -0.887997329   0.364624627
|1095> H  -1.245358202   0.870165591   0.079732156
|1096> *
|1097> 
|1098> 
|1099> $new_job
|1100> 
|1101> # 4meoh.boyd.etal.dset.1meoh.dset-orca.engrad-mp2.def2tzvp
|1102> ! MP2 def2-TZVP EnGrad TightSCF FrozenCore
|1103> 
|1104> %pal
|1105>     nprocs 12
|1106> end
|1107> 
|1108> %maxcore 8000
|1109> 
|1110> %scf
|1111>     ConvForced true
|1112> end
|1113> 
|1114> *xyz 0 1
|1115> O  -0.199665067   0.187127719  -0.634569008
|1116> H  -0.901323208   0.861357095  -0.501346124
|1117> C   0.244923239  -0.230747531   0.639056650
|1118> H   1.018281031  -0.991087062   0.487138851
|1119> H  -0.556396899  -0.681718800   1.248354263
|1120> H   0.690488126   0.590504521   1.224253009
|1121> *
|1122> 
|1123> 
|1124> $new_job
|1125> 
|1126> # 4meoh.boyd.etal.dset.1meoh.dset-orca.engrad-mp2.def2tzvp
|1127> ! MP2 def2-TZVP EnGrad TightSCF FrozenCore
|1128> 
|1129> %pal
|1130>     nprocs 12
|1131> end
|1132> 
|1133> %maxcore 8000
|1134> 
|1135> %scf
|1136>     ConvForced true
|1137> end
|1138> 
|1139> *xyz 0 1
|1140> O  -0.084553185  -0.545798653   0.420894853
|1141> H  -0.589179320  -1.218330082  -0.106600655
|1142> C   0.117156179   0.598416143  -0.399119752
|1143> H   0.663762333   1.337751229   0.193407678
|1144> H  -0.836036885   1.046724594  -0.715474905
|1145> H   0.707645831   0.367342230  -1.296876659
|1146> *
|1147> 
|1148> 
|1149> $new_job
|1150> 
|1151> # 4meoh.boyd.etal.dset.1meoh.dset-orca.engrad-mp2.def2tzvp
|1152> ! MP2 def2-TZVP EnGrad TightSCF FrozenCore
|1153> 
|1154> %pal
|1155>     nprocs 12
|1156> end
|1157> 
|1158> %maxcore 8000
|1159> 
|1160> %scf
|1161>     ConvForced true
|1162> end
|1163> 
|1164> *xyz 0 1
|1165> O  -0.295089319   0.627847122  -0.071311552
|1166> H  -1.177136669   0.578158382   0.357669549
|1167> C   0.356438065  -0.641113567   0.045409927
|1168> H   1.434324301  -0.460944575   0.053932993
|1169> H   0.095740083  -1.292377596  -0.799454987
|1170> H   0.084110179  -1.152018541   0.978780160
|1171> *
|1172> 
|1173> 
|1174> $new_job
|1175> 
|1176> # 4meoh.boyd.etal.dset.1meoh.dset-orca.engrad-mp2.def2tzvp
|1177> ! MP2 def2-TZVP EnGrad TightSCF FrozenCore
|1178> 
|1179> %pal
|1180>     nprocs 12
|1181> end
|1182> 
|1183> %maxcore 8000
|1184> 
|1185> %scf
|1186>     ConvForced true
|1187> end
|1188> 
|1189> *xyz 0 1
|1190> O  -0.291785628  -0.229931976  -0.593742264
|1191> H  -0.716015612   0.545276723  -0.993545766
|1192> C   0.326117310   0.191631794   0.633477477
|1193> H   0.692351985  -0.715480610   1.119150523
|1194> H  -0.403397012   0.671894044   1.297091363
|1195> H   1.172961352   0.864863452   0.454079149
|1196> *
|1197> 
|1198>                          ****END OF INPUT****
================================================================================


                 $$$$$$$$$$$$$$$$$$$$$$$$$$$$$$$$$$$$$$$$$$$$$$ 
                 $ THERE ARE 48 JOBS TO BE PROCESSED THIS RUN $
                 $$$$$$$$$$$$$$$$$$$$$$$$$$$$$$$$$$$$$$$$$$$$$$ 




                 $$$$$$$$$$$$$$$$  JOB NUMBER  1 $$$$$$$$$$$$$$


                     *******************************
                     * Energy+Gradient Calculation *
                     *******************************

---------------------------------
CARTESIAN COORDINATES (ANGSTROEM)
---------------------------------
  O      0.254749   -0.299344    0.572145
  H      1.231761   -0.116186    0.562374
  C     -0.319258    0.294773   -0.585126
  H     -1.379570    0.026932   -0.604549
  H      0.147895   -0.061511   -1.514583
  H     -0.239782    1.390148   -0.553334

----------------------------
CARTESIAN COORDINATES (A.U.)
----------------------------
  NO LB      ZA    FRAG     MASS         X           Y           Z
   0 O     8.0000    0    15.999    0.481405   -0.565678    1.081198
   1 H     1.0000    0     1.008    2.327691   -0.219559    1.062733
   2 C     6.0000    0    12.011   -0.603309    0.557041   -1.105728
   3 H     1.0000    0     1.008   -2.607010    0.050893   -1.142432
   4 H     1.0000    0     1.008    0.279481   -0.116239   -2.862147
   5 H     1.0000    0     1.008   -0.453123    2.626998   -1.045649

--------------------------------
INTERNAL COORDINATES (ANGSTROEM)
--------------------------------
 O      0   0   0     0.000000000000     0.00000000     0.00000000
 H      1   0   0     0.994080197492     0.00000000     0.00000000
 C      1   2   0     1.421877482994   108.16641385     0.00000000
 H      3   1   2     1.093791146295   107.66638005   175.94136040
 H      3   1   2     1.099572464698   112.40092804    56.49026920
 H      3   1   2     1.098713682126   111.33482326   294.56453710

---------------------------
INTERNAL COORDINATES (A.U.)
---------------------------
 O      0   0   0     0.000000000000     0.00000000     0.00000000
 H      1   0   0     1.878539328414     0.00000000     0.00000000
 C      1   2   0     2.686959038848   108.16641385     0.00000000
 H      3   1   2     2.066965714205   107.66638005   175.94136040
 H      3   1   2     2.077890822680   112.40092804    56.49026920
 H      3   1   2     2.076267958810   111.33482326   294.56453710

---------------------
BASIS SET INFORMATION
---------------------
There are 3 groups of distinct atoms

 Group   1 Type O   : 11s6p2d1f contracted to 5s3p2d1f pattern {62111/411/11/1}
 Group   2 Type H   : 5s1p contracted to 3s1p pattern {311/1}
 Group   3 Type C   : 11s6p2d1f contracted to 5s3p2d1f pattern {62111/411/11/1}

Atom   0O    basis set group =>   1
Atom   1H    basis set group =>   2
Atom   2C    basis set group =>   3
Atom   3H    basis set group =>   2
Atom   4H    basis set group =>   2
Atom   5H    basis set group =>   2


           ************************************************************
           *        Program running with 12 parallel MPI-processes    *
           *              working on a common directory               *
           ************************************************************
------------------------------------------------------------------------------
                           ORCA GTO INTEGRAL CALCULATION
------------------------------------------------------------------------------

                         BASIS SET STATISTICS AND STARTUP INFO

 # of primitive gaussian shells          ...   64
 # of primitive gaussian functions       ...  124
 # of contracted shells                  ...   38
 # of contracted basis functions         ...   86
 Highest angular momentum                ...    3
 Maximum contraction depth               ...    6
 Integral package used                   ... LIBINT
 Integral threshhold            Thresh   ...  2.500e-11
 Primitive cut-off              TCut     ...  2.500e-12


------------------------------ INTEGRAL EVALUATION ----------------------------


 * One electron integrals 
 Pre-screening matrix                    ... done
 Shell pair data                         ... done (   0.000 sec)



           ************************************************************
           *        Program running with 12 parallel MPI-processes    *
           *              working on a common directory               *
           ************************************************************
-------------------------------------------------------------------------------
                                 ORCA SCF
-------------------------------------------------------------------------------

------------
SCF SETTINGS
------------
Hamiltonian:
 Ab initio Hamiltonian  Method          .... Hartree-Fock(GTOs)


General Settings:
 Integral files         IntName         .... 4meoh.boyd.etal.dset.1meoh.dset-orca.engrad-mp2.def2tzvp
 Hartree-Fock type      HFTyp           .... RHF
 Total Charge           Charge          ....    0
 Multiplicity           Mult            ....    1
 Number of Electrons    NEL             ....   18
 Basis Dimension        Dim             ....   86
 Nuclear Repulsion      ENuc            ....     40.0509496291 Eh

Convergence Acceleration:
 DIIS                   CNVDIIS         .... on
   Start iteration      DIISMaxIt       ....    12
   Startup error        DIISStart       ....  0.200000
   # of expansion vecs  DIISMaxEq       ....     5
   Bias factor          DIISBfac        ....   1.050
   Max. coefficient     DIISMaxC        ....  10.000
 Newton-Raphson         CNVNR           .... off
 SOSCF                  CNVSOSCF        .... on
   Start iteration      SOSCFMaxIt      ....   150
   Startup grad/error   SOSCFStart      ....  0.003300
 Level Shifting         CNVShift        .... on
   Level shift para.    LevelShift      ....    0.2500
   Turn off err/grad.   ShiftErr        ....    0.0010
 Zerner damping         CNVZerner       .... off
 Static damping         CNVDamp         .... on
   Fraction old density DampFac         ....    0.7000
   Max. Damping (<1)    DampMax         ....    0.9800
   Min. Damping (>=0)   DampMin         ....    0.0000
   Turn off err/grad.   DampErr         ....    0.1000
 Fernandez-Rico         CNVRico         .... off

SCF Procedure:
 Maximum # iterations   MaxIter         ....   125
 SCF integral mode      SCFMode         .... Direct
   Integral package                     .... LIBINT
 Reset frequency        DirectResetFreq ....    20
 Integral Threshold     Thresh          ....  2.500e-11 Eh
 Primitive CutOff       TCut            ....  2.500e-12 Eh

Convergence Tolerance:
 Convergence Check Mode ConvCheckMode   .... Total+1el-Energy
 Convergence forced     ConvForced      .... 1
 Energy Change          TolE            ....  1.000e-08 Eh
 1-El. energy change                    ....  1.000e-05 Eh
 Orbital Gradient       TolG            ....  1.000e-05
 Orbital Rotation angle TolX            ....  1.000e-05
 DIIS Error             TolErr          ....  5.000e-07


Diagonalization of the overlap matrix:
Smallest eigenvalue                        ... 1.678e-03
Time for diagonalization                   ...    0.001 sec
Threshold for overlap eigenvalues          ... 1.000e-08
Number of eigenvalues below threshold      ... 0
Time for construction of square roots      ...    0.001 sec
Total time needed                          ...    0.002 sec

-------------------
DFT GRID GENERATION
-------------------

General Integration Accuracy     IntAcc      ...  4.340
Radial Grid Type                 RadialGrid  ... Gauss-Chebyshev
Angular Grid (max. acc.)         AngularGrid ... Lebedev-110
Angular grid pruning method      GridPruning ... 3 (G Style)
Weight generation scheme         WeightScheme... Becke
Basis function cutoff            BFCut       ...    1.0000e-11
Integration weight cutoff        WCut        ...    1.0000e-14
Grids for H and He will be reduced by one unit

# of grid points (after initial pruning)     ...   6548 (   0.0 sec)
# of grid points (after weights+screening)   ...   6373 (   0.0 sec)
nearest neighbour list constructed           ...    0.0 sec
Grid point re-assignment to atoms done       ...    0.0 sec
Grid point division into batches done        ...    0.0 sec
Reduced shell lists constructed in    0.0 sec

Total number of grid points                  ...     6373
Total number of batches                      ...      103
Average number of points per batch           ...       61
Average number of grid points per atom       ...     1062
Average number of shells per batch           ...    28.20 (74.21%)
Average number of basis functions per batch  ...    65.80 (76.51%)
Average number of large shells per batch     ...    25.10 (89.01%)
Average number of large basis fcns per batch ...    59.70 (90.73%)
Maximum spatial batch extension              ...  12.32, 20.63, 15.73 au
Average spatial batch extension              ...   0.52,  0.68,  0.60 au

Time for grid setup =    0.012 sec

------------------------------
INITIAL GUESS: MODEL POTENTIAL
------------------------------
Loading Hartree-Fock densities                     ... done
Calculating cut-offs                               ... done
Setting up the integral package                    ... done
Initializing the effective Hamiltonian             ... done
Starting the Coulomb interaction                   ... done (   0.0 sec)
Reading the grid                                   ... done
Mapping shells                                     ... done
Starting the XC term evaluation                    ... done (   0.0 sec)
Transforming the Hamiltonian                       ... done (   0.0 sec)
Diagonalizing the Hamiltonian                      ... done (   0.0 sec)
Back transforming the eigenvectors                 ... done (   0.0 sec)
Now organizing SCF variables                       ... done
                      ------------------
                      INITIAL GUESS DONE (   0.1 sec)
                      ------------------
--------------
SCF ITERATIONS
--------------
ITER       Energy         Delta-E        Max-DP      RMS-DP      [F,P]     Damp
               ***  Starting incremental Fock matrix formation  ***
  0   -114.9690900725   0.000000000000 0.03565200  0.00133166  0.2885501 0.7000
  1   -115.0129413347  -0.043851262246 0.02485468  0.00098647  0.2177897 0.7000
                               ***Turning on DIIS***
  2   -115.0382115588  -0.025270224086 0.01497312  0.00060844  0.1628271 0.7000
  3   -115.3289927920  -0.290781233187 0.00751804  0.00033940  0.1199719 0.7000
  4   -115.2783816206   0.050611171349 0.01782324  0.00081076  0.0845764 0.0000
  5   -115.0996149670   0.178766653662 0.00236076  0.00010723  0.0066141 0.0000
                      *** Initiating the SOSCF procedure ***
                           *** Shutting down DIIS ***
                      *** Re-Reading the Fockian *** 
                      *** Removing any level shift *** 
ITER      Energy       Delta-E        Grad      Rot      Max-DP    RMS-DP
  6   -115.09123466   0.0083803050  0.000794  0.000794  0.000848  0.000054
               *** Restarting incremental Fock matrix formation ***
  7   -115.08951648   0.0017181836  0.000361  0.000376  0.000516  0.000030
  8   -115.08951879  -0.0000023135  0.000195  0.000220  0.000351  0.000021
  9   -115.08951936  -0.0000005675  0.000032  0.000029  0.000055  0.000003
 10   -115.08951938  -0.0000000169  0.000007  0.000014  0.000016  0.000001
                 **** Energy Check signals convergence ****
              ***Rediagonalizing the Fockian in SOSCF/NRSCF***

               *****************************************************
               *                     SUCCESS                       *
               *           SCF CONVERGED AFTER  11 CYCLES          *
               *****************************************************


----------------
TOTAL SCF ENERGY
----------------

Total Energy       :         -115.08951938 Eh           -3131.74504 eV

Components:
Nuclear Repulsion  :           40.05094963 Eh            1089.84175 eV
Electronic Energy  :         -155.14046901 Eh           -4221.58678 eV
One Electron Energy:         -236.40938618 Eh           -6433.02645 eV
Two Electron Energy:           81.26891717 Eh            2211.43966 eV

Virial components:
Potential Energy   :         -229.96296960 Eh           -6257.61053 eV
Kinetic Energy     :          114.87345022 Eh            3125.86550 eV
Virial Ratio       :            2.00188093


---------------
SCF CONVERGENCE
---------------

  Last Energy change         ...   -1.3781e-09  Tolerance :   1.0000e-08
  Last MAX-Density change    ...    3.4437e-06  Tolerance :   1.0000e-07
  Last RMS-Density change    ...    2.2992e-07  Tolerance :   5.0000e-09
  Last Orbital Gradient      ...    2.0372e-06  Tolerance :   1.0000e-05
  Last Orbital Rotation      ...    5.3002e-06  Tolerance :   1.0000e-05

             **** THE GBW FILE WAS UPDATED (4meoh.boyd.etal.dset.1meoh.dset-orca.engrad-mp2.def2tzvp.gbw) ****
             **** DENSITY FILE WAS UPDATED (4meoh.boyd.etal.dset.1meoh.dset-orca.engrad-mp2.def2tzvp.scfp) ****
             **** ENERGY FILE WAS UPDATED (4meoh.boyd.etal.dset.1meoh.dset-orca.engrad-mp2.def2tzvp.en.tmp) ****
             **** THE GBW FILE WAS UPDATED (4meoh.boyd.etal.dset.1meoh.dset-orca.engrad-mp2.def2tzvp.gbw) ****
             **** DENSITY FILE WAS UPDATED (4meoh.boyd.etal.dset.1meoh.dset-orca.engrad-mp2.def2tzvp.scfp) ****
----------------
ORBITAL ENERGIES
----------------

  NO   OCC          E(Eh)            E(eV) 
   0   2.0000     -20.557580      -559.4002 
   1   2.0000     -11.271667      -306.7177 
   2   2.0000      -1.347297       -36.6618 
   3   2.0000      -0.919630       -25.0244 
   4   2.0000      -0.682154       -18.5624 
   5   2.0000      -0.616978       -16.7888 
   6   2.0000      -0.591220       -16.0879 
   7   2.0000      -0.500189       -13.6108 
   8   2.0000      -0.449059       -12.2195 
   9   0.0000       0.134945         3.6720 
  10   0.0000       0.175731         4.7819 
  11   0.0000       0.229049         6.2328 
  12   0.0000       0.230896         6.2830 
  13   0.0000       0.254812         6.9338 
  14   0.0000       0.332233         9.0405 
  15   0.0000       0.339438         9.2366 
  16   0.0000       0.461261        12.5516 
  17   0.0000       0.521792        14.1987 
  18   0.0000       0.570888        15.5346 
  19   0.0000       0.609762        16.5925 
  20   0.0000       0.620121        16.8744 
  21   0.0000       0.657723        17.8975 
  22   0.0000       0.683446        18.5975 
  23   0.0000       0.705382        19.1944 
  24   0.0000       0.764385        20.8000 
  25   0.0000       0.881863        23.9967 
  26   0.0000       0.923551        25.1311 
  27   0.0000       0.952324        25.9140 
  28   0.0000       1.091057        29.6892 
  29   0.0000       1.115846        30.3637 
  30   0.0000       1.246134        33.9090 
  31   0.0000       1.535586        41.7854 
  32   0.0000       1.659343        45.1530 
  33   0.0000       1.706462        46.4352 
  34   0.0000       1.774947        48.2988 
  35   0.0000       1.792580        48.7786 
  36   0.0000       1.793780        48.8112 
  37   0.0000       1.840454        50.0813 
  38   0.0000       1.861380        50.6507 
  39   0.0000       1.962305        53.3970 
  40   0.0000       2.137347        58.1602 
  41   0.0000       2.207851        60.0787 
  42   0.0000       2.244445        61.0744 
  43   0.0000       2.287930        62.2578 
  44   0.0000       2.303767        62.6887 
  45   0.0000       2.444906        66.5293 
  46   0.0000       2.549549        69.3767 
  47   0.0000       2.555877        69.5490 
  48   0.0000       2.594216        70.5922 
  49   0.0000       2.633115        71.6507 
  50   0.0000       2.694819        73.3297 
  51   0.0000       2.779724        75.6401 
  52   0.0000       2.839299        77.2613 
  53   0.0000       2.901526        78.9545 
  54   0.0000       3.047020        82.9136 
  55   0.0000       3.111107        84.6575 
  56   0.0000       3.138154        85.3935 
  57   0.0000       3.245675        88.3193 
  58   0.0000       3.355837        91.3170 
  59   0.0000       3.420176        93.0677 
  60   0.0000       3.537626        96.2637 
  61   0.0000       3.636743        98.9608 
  62   0.0000       3.671389        99.9036 
  63   0.0000       3.725779       101.3836 
  64   0.0000       3.862139       105.0942 
[...]
------------------------------------

Gathering the parts of the W-matrix              ...                                                      done
Forming the Z-density                            ... done
Transforming Z to the AO basis                   ... done
Calculating G(Z)                                 ... done
Finalizing the W-matrix                          ...                                                      done
Transforming W to the AO basis and storing       ... done

                *********************************************
                * UNRELAXED MP2 DENSITY POPULATION ANALYSIS *
                *********************************************

------------------------------------------------------------------------------
                           ORCA POPULATION ANALYSIS
------------------------------------------------------------------------------
Input electron density              ... 4meoh.boyd.etal.dset.1meoh.dset-orca.engrad-mp2.def2tzvp_job48.pmp2ur
BaseName (.gbw .S,...)              ... 4meoh.boyd.etal.dset.1meoh.dset-orca.engrad-mp2.def2tzvp_job48

                    ********************************
                    * MULLIKEN POPULATION ANALYSIS *
                    ********************************

-----------------------
MULLIKEN ATOMIC CHARGES
-----------------------
   0 O :   -0.534060
   1 H :    0.323425
   2 C :   -0.094114
   3 H :    0.112372
   4 H :    0.096066
   5 H :    0.096311
Sum of atomic charges:   -0.0000000

--------------------------------
MULLIKEN REDUCED ORBITAL CHARGES
--------------------------------
  0 O s       :     3.796825  s :     3.796825
      pz      :     1.436026  p :     4.673349
      px      :     1.715252
      py      :     1.522072
      dz2     :     0.012031  d :     0.059482
      dxz     :     0.010099
      dyz     :     0.015196
      dx2y2   :     0.009793
      dxy     :     0.012364
      f0      :     0.000650  f :     0.004403
      f+1     :     0.000812
      f-1     :     0.000528
      f+2     :     0.000564
      f-2     :     0.000768
      f+3     :     0.000659
      f-3     :     0.000422
  1 H s       :     0.629423  s :     0.629423
      pz      :     0.014017  p :     0.047152
      px      :     0.016825
      py      :     0.016310
  2 C s       :     3.195355  s :     3.195355
      pz      :     0.762508  p :     2.753478
      px      :     0.964008
      py      :     1.026962
      dz2     :     0.030287  d :     0.133249
      dxz     :     0.028065
      dyz     :     0.033601
      dx2y2   :     0.012658
      dxy     :     0.028639
      f0      :     0.002639  f :     0.012032
      f+1     :     0.001955
      f-1     :     0.001577
      f+2     :     0.001597
      f-2     :     0.002237
      f+3     :     0.000898
      f-3     :     0.001128
  3 H s       :     0.863319  s :     0.863319
      pz      :     0.006199  p :     0.024309
      px      :     0.005846
      py      :     0.012264
  4 H s       :     0.880674  s :     0.880674
      pz      :     0.007970  p :     0.023261
      px      :     0.008868
      py      :     0.006422
  5 H s       :     0.880271  s :     0.880271
      pz      :     0.003633  p :     0.023419
      px      :     0.011310
      py      :     0.008476


                     *******************************
                     * LOEWDIN POPULATION ANALYSIS *
                     *******************************

----------------------
LOEWDIN ATOMIC CHARGES
----------------------
   0 O :   -0.121911
   1 H :    0.171233
   2 C :   -0.333101
   3 H :    0.103493
   4 H :    0.090243
   5 H :    0.090043

-------------------------------
LOEWDIN REDUCED ORBITAL CHARGES
-------------------------------
  0 O s       :     3.387391  s :     3.387391
      pz      :     1.452690  p :     4.631886
      px      :     1.649357
      py      :     1.529839
      dz2     :     0.021113  d :     0.095671
      dxz     :     0.019391
      dyz     :     0.026286
      dx2y2   :     0.011187
      dxy     :     0.017695
      f0      :     0.001288  f :     0.006963
      f+1     :     0.001168
      f-1     :     0.000982
      f+2     :     0.001013
      f-2     :     0.001085
      f+3     :     0.000980
      f-3     :     0.000448
  1 H s       :     0.669847  s :     0.669847
      pz      :     0.038805  p :     0.158920
      px      :     0.049274
      py      :     0.070841
  2 C s       :     2.863918  s :     2.863918
      pz      :     0.875533  p :     2.976666
      px      :     1.026935
      py      :     1.074198
      dz2     :     0.105243  d :     0.432512
      dxz     :     0.102867
      dyz     :     0.106148
      dx2y2   :     0.027672
      dxy     :     0.090583
      f0      :     0.015852  f :     0.060005
      f+1     :     0.010355
      f-1     :     0.009386
      f+2     :     0.009292
      f-2     :     0.008383
      f+3     :     0.003161
      f-3     :     0.003576
  3 H s       :     0.832481  s :     0.832481
      pz      :     0.015503  p :     0.064026
      px      :     0.015631
      py      :     0.032891
  4 H s       :     0.845634  s :     0.845634
      pz      :     0.021508  p :     0.064122
      px      :     0.024293
      py      :     0.018322
  5 H s       :     0.845754  s :     0.845754
      pz      :     0.010339  p :     0.064202
      px      :     0.030253
      py      :     0.023610


                      *****************************
                      * MAYER POPULATION ANALYSIS *
                      *****************************

  NA   - Mulliken gross atomic population
  ZA   - Total nuclear charge
  QA   - Mulliken gross atomic charge
  VA   - Mayer's total valence
  BVA  - Mayer's bonded valence
  FA   - Mayer's free valence

  ATOM       NA         ZA         QA         VA         BVA        FA
  0 O      8.5341     8.0000    -0.5341     2.0955     1.6924     0.4030
  1 H      0.6766     1.0000     0.3234     0.9093     0.8583     0.0510
  2 C      6.0941     6.0000    -0.0941     4.0009     3.7220     0.2789
  3 H      0.8876     1.0000     0.1124     0.9715     0.9247     0.0468
  4 H      0.9039     1.0000     0.0961     0.9725     0.9236     0.0489
  5 H      0.9037     1.0000     0.0963     0.9707     0.9220     0.0487

  Mayer bond orders larger than 0.100000
B(  0-O ,  1-H ) :   0.8494 B(  0-O ,  2-C ) :   0.8713 B(  2-C ,  3-H ) :   0.9469 
B(  2-C ,  4-H ) :   0.9498 B(  2-C ,  5-H ) :   0.9472 


                *******************************************
                * RELAXED MP2 DENSITY POPULATION ANALYSIS *
                *******************************************

------------------------------------------------------------------------------
                           ORCA POPULATION ANALYSIS
------------------------------------------------------------------------------
Input electron density              ... 4meoh.boyd.etal.dset.1meoh.dset-orca.engrad-mp2.def2tzvp_job48.pmp2re
BaseName (.gbw .S,...)              ... 4meoh.boyd.etal.dset.1meoh.dset-orca.engrad-mp2.def2tzvp_job48

                    ********************************
                    * MULLIKEN POPULATION ANALYSIS *
                    ********************************

-----------------------
MULLIKEN ATOMIC CHARGES
-----------------------
   0 O :   -0.496814
   1 H :    0.318087
   2 C :   -0.175098
   3 H :    0.130288
   4 H :    0.111845
   5 H :    0.111692
Sum of atomic charges:   -0.0000000

--------------------------------
MULLIKEN REDUCED ORBITAL CHARGES
--------------------------------
  0 O s       :     3.798914  s :     3.798914
      pz      :     1.427565  p :     4.636201
      px      :     1.703958
      py      :     1.504677
      dz2     :     0.011531  d :     0.057354
      dxz     :     0.009791
      dyz     :     0.014542
      dx2y2   :     0.009622
      dxy     :     0.011869
      f0      :     0.000648  f :     0.004344
      f+1     :     0.000797
      f-1     :     0.000518
      f+2     :     0.000564
      f-2     :     0.000751
      f+3     :     0.000644
      f-3     :     0.000422
  1 H s       :     0.634105  s :     0.634105
      pz      :     0.014325  p :     0.047808
      px      :     0.017449
      py      :     0.016034
  2 C s       :     3.217064  s :     3.217064
      pz      :     0.780846  p :     2.822850
      px      :     0.989009
      py      :     1.052995
      dz2     :     0.029314  d :     0.123705
      dxz     :     0.024860
      dyz     :     0.032744
      dx2y2   :     0.012736
      dxy     :     0.024050
      f0      :     0.002480  f :     0.011479
      f+1     :     0.001847
      f-1     :     0.001566
      f+2     :     0.001502
      f-2     :     0.002156
      f+3     :     0.000856
      f-3     :     0.001072
  3 H s       :     0.846572  s :     0.846572
      pz      :     0.006040  p :     0.023141
      px      :     0.005883
      py      :     0.011218
  4 H s       :     0.866008  s :     0.866008
      pz      :     0.007471  p :     0.022147
      px      :     0.008338
      py      :     0.006338
  5 H s       :     0.865995  s :     0.865995
      pz      :     0.003856  p :     0.022313
      px      :     0.010396
      py      :     0.008061


                     *******************************
                     * LOEWDIN POPULATION ANALYSIS *
                     *******************************

----------------------
LOEWDIN ATOMIC CHARGES
----------------------
   0 O :   -0.108504
   1 H :    0.173909
   2 C :   -0.368161
   3 H :    0.110596
   4 H :    0.096343
   5 H :    0.095816

-------------------------------
LOEWDIN REDUCED ORBITAL CHARGES
-------------------------------
  0 O s       :     3.390307  s :     3.390307
      pz      :     1.448442  p :     4.616004
      px      :     1.643467
      py      :     1.524095
      dz2     :     0.021058  d :     0.095126
      dxz     :     0.019345
      dyz     :     0.026013
      dx2y2   :     0.011300
      dxy     :     0.017411
      f0      :     0.001317  f :     0.007066
      f+1     :     0.001194
      f-1     :     0.000989
      f+2     :     0.001030
      f-2     :     0.001103
      f+3     :     0.000984
      f-3     :     0.000448
  1 H s       :     0.666635  s :     0.666635
      pz      :     0.038696  p :     0.159456
      px      :     0.049674
      py      :     0.071086
  2 C s       :     2.869872  s :     2.869872
      pz      :     0.886560  p :     3.016582
      px      :     1.041376
      py      :     1.088646
      dz2     :     0.104510  d :     0.423152
      dxz     :     0.099358
      dyz     :     0.104688
      dx2y2   :     0.026914
      dxy     :     0.087683
      f0      :     0.015430  f :     0.058555
      f+1     :     0.010150
      f-1     :     0.009226
      f+2     :     0.009090
      f-2     :     0.008096
      f+3     :     0.003114
      f-3     :     0.003447
  3 H s       :     0.825040  s :     0.825040
      pz      :     0.015800  p :     0.064364
      px      :     0.016018
      py      :     0.032546
  4 H s       :     0.838819  s :     0.838819
      pz      :     0.021873  p :     0.064837
      px      :     0.024293
      py      :     0.018671
  5 H s       :     0.839297  s :     0.839297
      pz      :     0.010891  p :     0.064887
      px      :     0.030202
      py      :     0.023795


                      *****************************
                      * MAYER POPULATION ANALYSIS *
                      *****************************

  NA   - Mulliken gross atomic population
  ZA   - Total nuclear charge
  QA   - Mulliken gross atomic charge
  VA   - Mayer's total valence
  BVA  - Mayer's bonded valence
  FA   - Mayer's free valence

  ATOM       NA         ZA         QA         VA         BVA        FA
  0 O      8.4968     8.0000    -0.4968     2.1489     1.7522     0.3967
  1 H      0.6819     1.0000     0.3181     0.9115     0.8605     0.0511
  2 C      6.1751     6.0000    -0.1751     4.0232     3.7465     0.2766
  3 H      0.8697     1.0000     0.1303     0.9629     0.9166     0.0462
  4 H      0.8882     1.0000     0.1118     0.9660     0.9177     0.0483
  5 H      0.8883     1.0000     0.1117     0.9631     0.9149     0.0482

  Mayer bond orders larger than 0.100000
B(  0-O ,  1-H ) :   0.8497 B(  0-O ,  2-C ) :   0.9226 B(  2-C ,  3-H ) :   0.9389 
B(  2-C ,  4-H ) :   0.9401 B(  2-C ,  5-H ) :   0.9367 


----------------------------------
MP2 DERIVATIVE INTEGRAL GENERATION
----------------------------------


Input Wavefunction Amplitudes       ... 4meoh.boyd.etal.dset.1meoh.dset-orca.engrad-mp2.def2tzvp_job48.mp2tsaa.tmp
Input Correlated Electron Density   ... 4meoh.boyd.etal.dset.1meoh.dset-orca.engrad-mp2.def2tzvp_job48.pmp2re
Input Energy Weighted Density       ... 4meoh.boyd.etal.dset.1meoh.dset-orca.engrad-mp2.def2tzvp_job48.wmp2.tmp
Input SCF Electron Density          ... 4meoh.boyd.etal.dset.1meoh.dset-orca.engrad-mp2.def2tzvp_job48.scfp

One-Electron Terms    ...
                        ... One-Electron Terms done
Prescreening matrices              ... done

Batch handling in the gradient evaluation:
Memory available                      ... 8000.0 MB
Memory per occupied orbital in Q2     ...    0.4 MB
Memory per occupied orbital in Q3     ...    0.0 MB
Total memory requirement per |i>      ...    0.4 MB
Max. Number of orbitals possible      ...  18729
Number of orbitals treated per batch  ...      7
Number of batches to be done          ...      1
Batch   0: i=    2 ...     8

---------------------------------------
MP2 TOTAL ENERGY:     -115.507318446 Eh
---------------------------------------

The final MP2 gradient
  0:  -0.00163837  -0.00638214  -0.00460940
  1:  -0.00371287   0.00446608  -0.00342709
  2:   0.00545996   0.00350830   0.00635529
  3:   0.00066999  -0.00284467   0.00158917
  4:  -0.00342950   0.00025421   0.00092193
  5:   0.00265079   0.00099822  -0.00082991

-----------------------------------
NORM OF THE MP2 GRADIENT:  0.015003
-----------------------------------

-------------------------   --------------------
FINAL SINGLE POINT ENERGY      -115.507318445984
-------------------------   --------------------


                            ***************************************
                            *     ORCA property calculations      *
                            ***************************************

                                    ---------------------
                                    Active property flags
                                    ---------------------
   (+) Dipole Moment


------------------------------------------------------------------------------
                       ORCA ELECTRIC PROPERTIES CALCULATION
------------------------------------------------------------------------------

Dipole Moment Calculation                       ... on
Quadrupole Moment Calculation                   ... off
Polarizability Calculation                      ... off
GBWName                                         ... 4meoh.boyd.etal.dset.1meoh.dset-orca.engrad-mp2.def2tzvp_job48.gbw
Electron density file                           ... 4meoh.boyd.etal.dset.1meoh.dset-orca.engrad-mp2.def2tzvp_job48.scfp
The origin for moment calculation is the CENTER OF MASS  = ( 0.000034,  0.000029  0.000071)

-------------
DIPOLE MOMENT
-------------
                                X             Y             Z
Electronic contribution:     -0.69660      -0.59460      -1.46014
Nuclear contribution   :      0.69540       1.27861       1.75182
                        -----------------------------------------
Total Dipole Moment    :     -0.00119       0.68401       0.29169
                        -----------------------------------------
Magnitude (a.u.)       :      0.74361
Magnitude (Debye)      :      1.89010



--------------------
Rotational spectrum 
--------------------
 
Rotational constants in cm-1:     4.219719     0.812108     0.784297 
Rotational constants in MHz : 126503.997073 24346.398415 23512.639661 

 Dipole components along the rotational axes: 
x,y,z [a.u.] :     0.415924     0.616397     0.003416 
x,y,z [Debye]:     1.057195     1.566758     0.008683 

 

                         *** MP2 UNRELAXED DENSITY ***

------------------------------------------------------------------------------
                       ORCA ELECTRIC PROPERTIES CALCULATION
------------------------------------------------------------------------------

Dipole Moment Calculation                       ... on
Quadrupole Moment Calculation                   ... off
Polarizability Calculation                      ... off
GBWName                                         ... 4meoh.boyd.etal.dset.1meoh.dset-orca.engrad-mp2.def2tzvp_job48.gbw
Electron density file                           ... 4meoh.boyd.etal.dset.1meoh.dset-orca.engrad-mp2.def2tzvp_job48.pmp2ur
The origin for moment calculation is the CENTER OF MASS  = ( 0.000034,  0.000029  0.000071)

-------------
DIPOLE MOMENT
-------------
                                X             Y             Z
Electronic contribution:     -0.69927      -0.60714      -1.46949
Nuclear contribution   :      0.69540       1.27861       1.75182
                        -----------------------------------------
Total Dipole Moment    :     -0.00387       0.67147       0.28233
                        -----------------------------------------
Magnitude (a.u.)       :      0.72842
Magnitude (Debye)      :      1.85150



--------------------
Rotational spectrum 
--------------------
 
Rotational constants in cm-1:     4.219719     0.812108     0.784297 
Rotational constants in MHz : 126503.997073 24346.398415 23512.639661 

 Dipole components along the rotational axes: 
x,y,z [a.u.] :     0.403644     0.606348     0.003645 
x,y,z [Debye]:     1.025981     1.541215     0.009265 

 

                           *** MP2 RELAXED DENSITY ***

------------------------------------------------------------------------------
                       ORCA ELECTRIC PROPERTIES CALCULATION
------------------------------------------------------------------------------

Dipole Moment Calculation                       ... on
Quadrupole Moment Calculation                   ... off
Polarizability Calculation                      ... off
GBWName                                         ... 4meoh.boyd.etal.dset.1meoh.dset-orca.engrad-mp2.def2tzvp_job48.gbw
Electron density file                           ... 4meoh.boyd.etal.dset.1meoh.dset-orca.engrad-mp2.def2tzvp_job48.pmp2re
The origin for moment calculation is the CENTER OF MASS  = ( 0.000034,  0.000029  0.000071)

-------------
DIPOLE MOMENT
-------------
                                X             Y             Z
Electronic contribution:     -0.70686      -0.62442      -1.48663
Nuclear contribution   :      0.69540       1.27861       1.75182
                        -----------------------------------------
Total Dipole Moment    :     -0.01146       0.65419       0.26520
                        -----------------------------------------
Magnitude (a.u.)       :      0.70600
Magnitude (Debye)      :      1.79450



--------------------
Rotational spectrum 
--------------------
 
Rotational constants in cm-1:     4.219719     0.812108     0.784297 
Rotational constants in MHz : 126503.997073 24346.398415 23512.639661 

 Dipole components along the rotational axes: 
x,y,z [a.u.] :     0.381319     0.594138     0.005136 
x,y,z [Debye]:     0.969235     1.510179     0.013055 

 

Timings for individual modules:

Sum of individual times         ...       12.534 sec (=   0.209 min)
GTO integral calculation        ...        1.611 sec (=   0.027 min)  12.9 %
SCF iterations                  ...        6.035 sec (=   0.101 min)  48.1 %
MP2 module                      ...        4.888 sec (=   0.081 min)  39.0 %



                             ****ORCA TERMINATED NORMALLY****
TOTAL RUN TIME: 0 days 0 hours 8 minutes 58 seconds 256 msec
