
                                 *****************
                                 * O   R   C   A *
                                 *****************

           --- An Ab Initio, DFT and Semiempirical electronic structure package ---

                  #######################################################
                  #                        -***-                        #
                  #          Department of theory and spectroscopy      #
                  #               Directorship: Frank Neese             #
                  #        Max Planck Institute fuer Kohlenforschung    #
                  #                Kaiser Wilhelm Platz 1               #
                  #                 D-45470 Muelheim/Ruhr               #
                  #                      Germany                        #
                  #                                                     #
                  #                  All rights reserved                #
                  #                        -***-                        #
                  #######################################################


                         Program Version 4.2.0 -  RELEASE  -


 With contributions from (in alphabetic order):
   Daniel Aravena         : Magnetic Suceptibility
   Michael Atanasov       : Ab Initio Ligand Field Theory (pilot matlab implementation)
   Alexander A. Auer      : GIAO ZORA, VPT2
   Ute Becker             : Parallelization
   Giovanni Bistoni       : ED, misc. LED, open-shell LED, HFLED
   Martin Brehm           : Molecular dynamics
   Dmytro Bykov           : SCF Hessian
   Vijay G. Chilkuri      : MRCI spin determinant printing, contributions to CSF-ICE
   Dipayan Datta          : RHF DLPNO-CCSD density
   Achintya Kumar Dutta   : EOM-CC, STEOM-CC
   Dmitry Ganyushin       : Spin-Orbit,Spin-Spin,Magnetic field MRCI
   Miquel Garcia          : C-PCM Hessian, Gaussian charge scheme
   Yang Guo               : DLPNO-NEVPT2, CIM, IAO-localization
   Andreas Hansen         : Spin unrestricted coupled pair/coupled cluster methods
   Benjamin Helmich-Paris : CASSCF linear response (MC-RPA)
   Lee Huntington         : MR-EOM, pCC
   Robert Izsak           : Overlap fitted RIJCOSX, COSX-SCS-MP3, EOM
   Christian Kollmar      : KDIIS, OOCD, Brueckner-CCSD(T), CCSD density
   Simone Kossmann        : Meta GGA functionals, TD-DFT gradient, OOMP2, MP2 Hessian
   Martin Krupicka        : AUTO-CI
   Lucas Lang             : DCDCAS
   Dagmar Lenk            : GEPOL surface, SMD
   Dimitrios Liakos       : Extrapolation schemes; Compound Job, initial MDCI parallelization
   Dimitrios Manganas     : Further ROCIS development; embedding schemes
   Dimitrios Pantazis     : SARC Basis sets
   Taras Petrenko         : DFT Hessian,TD-DFT gradient, ASA, ECA, R-Raman, ABS, FL, XAS/XES, NRVS
   Peter Pinski           : DLPNO-MP2, DLPNO-MP2 Gradient
   Christoph Reimann      : Effective Core Potentials
   Marius Retegan         : Local ZFS, SOC
   Christoph Riplinger    : Optimizer, TS searches, QM/MM, DLPNO-CCSD(T), (RO)-DLPNO pert. Triples
   Tobias Risthaus        : Range-separated hybrids, TD-DFT gradient, RPA, STAB
   Michael Roemelt        : Original ROCIS implementation
   Masaaki Saitow         : Open-shell DLPNO-CCSD energy and density
   Barbara Sandhoefer     : DKH picture change effects
   Avijit Sen             : IP-ROCIS
   Kantharuban Sivalingam : CASSCF convergence, NEVPT2, FIC-MRCI
   Bernardo de Souza      : ESD, SOC TD-DFT
   Georgi Stoychev        : AutoAux, RI-MP2 NMR
   Willem Van den Heuvel  : Paramagnetic NMR
   Boris Wezisla          : Elementary symmetry handling
   Frank Wennmohs         : Technical directorship


 We gratefully acknowledge several colleagues who have allowed us to
 interface, adapt or use parts of their codes:
   Stefan Grimme, W. Hujo, H. Kruse,             : VdW corrections, initial TS optimization,
                  C. Bannwarth                     DFT functionals, gCP, sTDA/sTD-DF
   Ed Valeev, F. Pavosevic, A. Kumar             : LibInt (2-el integral package), F12 methods
   Garnet Chan, S. Sharma, J. Yang, R. Olivares  : DMRG
   Ulf Ekstrom                                   : XCFun DFT Library
   Mihaly Kallay                                 : mrcc  (arbitrary order and MRCC methods)
   Andreas Klamt, Michael Diedenhofen            : otool_cosmo (COSMO solvation model)
   Jiri Pittner, Ondrej Demel                    : Mk-CCSD
   Frank Weinhold                                : gennbo (NPA and NBO analysis)
   Christopher J. Cramer and Donald G. Truhlar   : smd solvation model
   Lars Goerigk                                  : TD-DFT with DH, B97 family of functionals
   V. Asgeirsson, H. Jonsson                     : NEB implementation
   FAccTs GmbH                                   : IRC, NEB, NEB-TS, Multilevel, MM, QM/MM, CI optimization
   S Lehtola, MJT Oliveira, MAL Marques          : LibXC Library


 Your calculation uses the libint2 library for the computation of 2-el integrals
 For citations please refer to: http://libint.valeyev.net

 Your ORCA version has been built with support for libXC version: 4.2.3
 For citations please refer to: https://tddft.org/programs/libxc/

 This ORCA versions uses:
   CBLAS   interface :  Fast vector & matrix operations
   LAPACKE interface :  Fast linear algebra routines
   SCALAPACK package :  Parallel linear algebra routines


----- Orbital basis set information -----
Your calculation utilizes the basis: def2-TZVP
   F. Weigend and R. Ahlrichs, Phys. Chem. Chem. Phys. 7, 3297 (2005).

================================================================================
                                        WARNINGS
                       Please study these warnings very carefully!
================================================================================


WARNING: The frozen-core approximation for MP2-gradient calculations is turned on by default.

INFO   : the flag for use of LIBINT has been found!

----- Orbital basis set information -----
Your calculation utilizes the basis: def2-TZVP
   F. Weigend and R. Ahlrichs, Phys. Chem. Chem. Phys. 7, 3297 (2005).

================================================================================
                                        WARNINGS
                       Please study these warnings very carefully!
================================================================================


WARNING: The frozen-core approximation for MP2-gradient calculations is turned on by default.

INFO   : the flag for use of LIBINT has been found!

----- Orbital basis set information -----
Your calculation utilizes the basis: def2-TZVP
   F. Weigend and R. Ahlrichs, Phys. Chem. Chem. Phys. 7, 3297 (2005).

================================================================================
                                        WARNINGS
                       Please study these warnings very carefully!
================================================================================


WARNING: The frozen-core approximation for MP2-gradient calculations is turned on by default.

INFO   : the flag for use of LIBINT has been found!

----- Orbital basis set information -----
Your calculation utilizes the basis: def2-TZVP
   F. Weigend and R. Ahlrichs, Phys. Chem. Chem. Phys. 7, 3297 (2005).

================================================================================
                                        WARNINGS
                       Please study these warnings very carefully!
================================================================================


WARNING: The frozen-core approximation for MP2-gradient calculations is turned on by default.

INFO   : the flag for use of LIBINT has been found!

----- Orbital basis set information -----
Your calculation utilizes the basis: def2-TZVP
   F. Weigend and R. Ahlrichs, Phys. Chem. Chem. Phys. 7, 3297 (2005).

================================================================================
                                        WARNINGS
                       Please study these warnings very carefully!
================================================================================


WARNING: The frozen-core approximation for MP2-gradient calculations is turned on by default.

INFO   : the flag for use of LIBINT has been found!

----- Orbital basis set information -----
Your calculation utilizes the basis: def2-TZVP
   F. Weigend and R. Ahlrichs, Phys. Chem. Chem. Phys. 7, 3297 (2005).

================================================================================
                                        WARNINGS
                       Please study these warnings very carefully!
================================================================================


WARNING: The frozen-core approximation for MP2-gradient calculations is turned on by default.

INFO   : the flag for use of LIBINT has been found!

----- Orbital basis set information -----
Your calculation utilizes the basis: def2-TZVP
   F. Weigend and R. Ahlrichs, Phys. Chem. Chem. Phys. 7, 3297 (2005).

================================================================================
                                        WARNINGS
                       Please study these warnings very carefully!
================================================================================


WARNING: The frozen-core approximation for MP2-gradient calculations is turned on by default.

INFO   : the flag for use of LIBINT has been found!

----- Orbital basis set information -----
Your calculation utilizes the basis: def2-TZVP
   F. Weigend and R. Ahlrichs, Phys. Chem. Chem. Phys. 7, 3297 (2005).

================================================================================
                                        WARNINGS
                       Please study these warnings very carefully!
================================================================================


WARNING: The frozen-core approximation for MP2-gradient calculations is turned on by default.

INFO   : the flag for use of LIBINT has been found!

----- Orbital basis set information -----
Your calculation utilizes the basis: def2-TZVP
   F. Weigend and R. Ahlrichs, Phys. Chem. Chem. Phys. 7, 3297 (2005).

================================================================================
                                        WARNINGS
                       Please study these warnings very carefully!
================================================================================


WARNING: The frozen-core approximation for MP2-gradient calculations is turned on by default.

INFO   : the flag for use of LIBINT has been found!

----- Orbital basis set information -----
Your calculation utilizes the basis: def2-TZVP
   F. Weigend and R. Ahlrichs, Phys. Chem. Chem. Phys. 7, 3297 (2005).

================================================================================
                                        WARNINGS
                       Please study these warnings very carefully!
================================================================================


WARNING: The frozen-core approximation for MP2-gradient calculations is turned on by default.

INFO   : the flag for use of LIBINT has been found!

----- Orbital basis set information -----
Your calculation utilizes the basis: def2-TZVP
   F. Weigend and R. Ahlrichs, Phys. Chem. Chem. Phys. 7, 3297 (2005).

================================================================================
                                        WARNINGS
                       Please study these warnings very carefully!
================================================================================


WARNING: The frozen-core approximation for MP2-gradient calculations is turned on by default.

INFO   : the flag for use of LIBINT has been found!

----- Orbital basis set information -----
Your calculation utilizes the basis: def2-TZVP
   F. Weigend and R. Ahlrichs, Phys. Chem. Chem. Phys. 7, 3297 (2005).

================================================================================
                                        WARNINGS
                       Please study these warnings very carefully!
================================================================================


WARNING: The frozen-core approximation for MP2-gradient calculations is turned on by default.

INFO   : the flag for use of LIBINT has been found!

----- Orbital basis set information -----
Your calculation utilizes the basis: def2-TZVP
   F. Weigend and R. Ahlrichs, Phys. Chem. Chem. Phys. 7, 3297 (2005).

================================================================================
                                        WARNINGS
                       Please study these warnings very carefully!
================================================================================


WARNING: The frozen-core approximation for MP2-gradient calculations is turned on by default.

INFO   : the flag for use of LIBINT has been found!

----- Orbital basis set information -----
Your calculation utilizes the basis: def2-TZVP
   F. Weigend and R. Ahlrichs, Phys. Chem. Chem. Phys. 7, 3297 (2005).

================================================================================
                                        WARNINGS
                       Please study these warnings very carefully!
================================================================================


WARNING: The frozen-core approximation for MP2-gradient calculations is turned on by default.

INFO   : the flag for use of LIBINT has been found!

----- Orbital basis set information -----
Your calculation utilizes the basis: def2-TZVP
   F. Weigend and R. Ahlrichs, Phys. Chem. Chem. Phys. 7, 3297 (2005).

================================================================================
                                        WARNINGS
                       Please study these warnings very carefully!
================================================================================


WARNING: The frozen-core approximation for MP2-gradient calculations is turned on by default.

INFO   : the flag for use of LIBINT has been found!

----- Orbital basis set information -----
Your calculation utilizes the basis: def2-TZVP
   F. Weigend and R. Ahlrichs, Phys. Chem. Chem. Phys. 7, 3297 (2005).

================================================================================
                                        WARNINGS
                       Please study these warnings very carefully!
================================================================================


WARNING: The frozen-core approximation for MP2-gradient calculations is turned on by default.

INFO   : the flag for use of LIBINT has been found!

----- Orbital basis set information -----
Your calculation utilizes the basis: def2-TZVP
   F. Weigend and R. Ahlrichs, Phys. Chem. Chem. Phys. 7, 3297 (2005).

================================================================================
                                        WARNINGS
                       Please study these warnings very carefully!
================================================================================


WARNING: The frozen-core approximation for MP2-gradient calculations is turned on by default.

INFO   : the flag for use of LIBINT has been found!

----- Orbital basis set information -----
Your calculation utilizes the basis: def2-TZVP
   F. Weigend and R. Ahlrichs, Phys. Chem. Chem. Phys. 7, 3297 (2005).

================================================================================
                                        WARNINGS
                       Please study these warnings very carefully!
================================================================================


WARNING: The frozen-core approximation for MP2-gradient calculations is turned on by default.

INFO   : the flag for use of LIBINT has been found!

----- Orbital basis set information -----
Your calculation utilizes the basis: def2-TZVP
   F. Weigend and R. Ahlrichs, Phys. Chem. Chem. Phys. 7, 3297 (2005).

================================================================================
                                        WARNINGS
                       Please study these warnings very carefully!
================================================================================


WARNING: The frozen-core approximation for MP2-gradient calculations is turned on by default.

INFO   : the flag for use of LIBINT has been found!

----- Orbital basis set information -----
Your calculation utilizes the basis: def2-TZVP
   F. Weigend and R. Ahlrichs, Phys. Chem. Chem. Phys. 7, 3297 (2005).

================================================================================
                                        WARNINGS
                       Please study these warnings very carefully!
================================================================================


WARNING: The frozen-core approximation for MP2-gradient calculations is turned on by default.

INFO   : the flag for use of LIBINT has been found!

================================================================================
                                       INPUT FILE
================================================================================
NAME = 16meoh.pires.deturi.4meoh.dset-orca.engrad-mp2.def2tzvp-1800.to.1819.inp
|  1> # 16meoh.pires.deturi.4meoh.dset-orca.engrad-mp2.def2tzvp-1800.to.1819
|  2> ! MP2 def2-TZVP EnGrad TightSCF FrozenCore
|  3> 
|  4> %pal
|  5>     nprocs 12
|  6> end
|  7> 
|  8> %maxcore 8000
|  9> 
| 10> %scf
| 11>     ConvForced true
| 12> end
| 13> 
| 14> *xyz 0 1
| 15> O   0.126509440  -3.076363248  -1.256196668
| 16> H   0.340008795  -3.093524223  -0.288451805
| 17> C   1.318820081  -3.418433896  -1.929271824
| 18> H   1.042211472  -3.479571685  -2.984824234
| 19> H   1.717688319  -4.384686928  -1.592897088
| 20> H   2.086886817  -2.645978282  -1.791305838
| 21> O  -3.745530256  -2.181170077  -0.940717811
| 22> H  -3.256375244  -2.983228774  -1.256562685
| 23> C  -4.830023615  -2.030924414  -1.835448747
| 24> H  -5.367049145  -1.144924407  -1.481069017
| 25> H  -5.495188050  -2.901194789  -1.805874980
| 26> H  -4.486329742  -1.867261732  -2.863517219
| 27> O   4.503295638  -1.807526466   1.768213514
| 28> H   4.809734628  -1.780091171   0.825623027
| 29> C   5.683820585  -1.783410235   2.546417170
| 30> H   5.340445492  -1.814134467   3.583904082
| 31> H   6.255091750  -0.864500960   2.373477866
| 32> H   6.318124312  -2.653917265   2.341240921
| 33> O   3.008513329  -4.077296804   2.205052849
| 34> H   3.600952247  -3.293343640   2.081078922
| 35> C   3.413698687  -4.999152804   1.213529583
| 36> H   2.677141565  -5.805820476   1.250508246
| 37> H   4.410233455  -5.399632470   1.432393730
| 38> H   3.419685405  -4.546257033   0.206276496
| 39> *
| 40> 
| 41> 
| 42> $new_job
| 43> 
| 44> # 16meoh.pires.deturi.4meoh.dset-orca.engrad-mp2.def2tzvp-1800.to.1819
| 45> ! MP2 def2-TZVP EnGrad TightSCF FrozenCore
| 46> 
| 47> %pal
| 48>     nprocs 12
| 49> end
| 50> 
| 51> %maxcore 8000
| 52> 
| 53> %scf
| 54>     ConvForced true
| 55> end
| 56> 
| 57> *xyz 0 1
| 58> O   0.126509440  -3.076363248  -1.256196668
| 59> H   0.340008795  -3.093524223  -0.288451805
| 60> C   1.318820081  -3.418433896  -1.929271824
| 61> H   1.042211472  -3.479571685  -2.984824234
| 62> H   1.717688319  -4.384686928  -1.592897088
| 63> H   2.086886817  -2.645978282  -1.791305838
| 64> O   3.190012295  -0.294310707  -2.020941016
| 65> H   2.714509117   0.163887168  -1.279560508
| 66> C   3.773621856   0.754487110  -2.771105983
| 67> H   4.169048413   0.279603731  -3.672411353
| 68> H   4.589570778   1.231807210  -2.215189996
| 69> H   3.027632133   1.516876814  -3.048043373
| 70> O   5.209159061  -1.760286019  -0.887111380
| 71> H   4.488190304  -1.244416518  -1.334663238
| 72> C   5.098612890  -3.068562606  -1.410992649
| 73> H   5.998675499  -3.590032498  -1.074395254
| 74> H   5.058726259  -3.069197366  -2.505687480
| 75> H   4.207235260  -3.583539786  -1.010262625
| 76> O   4.503295638  -1.807526466   1.768213514
| 77> H   4.809734628  -1.780091171   0.825623027
| 78> C   5.683820585  -1.783410235   2.546417170
| 79> H   5.340445492  -1.814134467   3.583904082
| 80> H   6.255091750  -0.864500960   2.373477866
| 81> H   6.318124312  -2.653917265   2.341240921
| 82> *
| 83> 
| 84> 
| 85> $new_job
| 86> 
| 87> # 16meoh.pires.deturi.4meoh.dset-orca.engrad-mp2.def2tzvp-1800.to.1819
| 88> ! MP2 def2-TZVP EnGrad TightSCF FrozenCore
| 89> 
| 90> %pal
| 91>     nprocs 12
| 92> end
| 93> 
| 94> %maxcore 8000
| 95> 
| 96> %scf
| 97>     ConvForced true
| 98> end
| 99> 
|100> *xyz 0 1
|101> O   0.126509440  -3.076363248  -1.256196668
|102> H   0.340008795  -3.093524223  -0.288451805
|103> C   1.318820081  -3.418433896  -1.929271824
|104> H   1.042211472  -3.479571685  -2.984824234
|105> H   1.717688319  -4.384686928  -1.592897088
|106> H   2.086886817  -2.645978282  -1.791305838
|107> O   3.190012295  -0.294310707  -2.020941016
|108> H   2.714509117   0.163887168  -1.279560508
|109> C   3.773621856   0.754487110  -2.771105983
|110> H   4.169048413   0.279603731  -3.672411353
|111> H   4.589570778   1.231807210  -2.215189996
|112> H   3.027632133   1.516876814  -3.048043373
|113> O   5.209159061  -1.760286019  -0.887111380
|114> H   4.488190304  -1.244416518  -1.334663238
|115> C   5.098612890  -3.068562606  -1.410992649
|116> H   5.998675499  -3.590032498  -1.074395254
|117> H   5.058726259  -3.069197366  -2.505687480
|118> H   4.207235260  -3.583539786  -1.010262625
|119> O   3.008513329  -4.077296804   2.205052849
|120> H   3.600952247  -3.293343640   2.081078922
|121> C   3.413698687  -4.999152804   1.213529583
|122> H   2.677141565  -5.805820476   1.250508246
|123> H   4.410233455  -5.399632470   1.432393730
|124> H   3.419685405  -4.546257033   0.206276496
|125> *
|126> 
|127> 
|128> $new_job
|129> 
|130> # 16meoh.pires.deturi.4meoh.dset-orca.engrad-mp2.def2tzvp-1800.to.1819
|131> ! MP2 def2-TZVP EnGrad TightSCF FrozenCore
|132> 
|133> %pal
|134>     nprocs 12
|135> end
|136> 
|137> %maxcore 8000
|138> 
|139> %scf
|140>     ConvForced true
|141> end
|142> 
|143> *xyz 0 1
|144> O   0.126509440  -3.076363248  -1.256196668
|145> H   0.340008795  -3.093524223  -0.288451805
|146> C   1.318820081  -3.418433896  -1.929271824
|147> H   1.042211472  -3.479571685  -2.984824234
|148> H   1.717688319  -4.384686928  -1.592897088
|149> H   2.086886817  -2.645978282  -1.791305838
|150> O   3.190012295  -0.294310707  -2.020941016
|151> H   2.714509117   0.163887168  -1.279560508
|152> C   3.773621856   0.754487110  -2.771105983
|153> H   4.169048413   0.279603731  -3.672411353
|154> H   4.589570778   1.231807210  -2.215189996
|155> H   3.027632133   1.516876814  -3.048043373
|156> O   4.503295638  -1.807526466   1.768213514
|157> H   4.809734628  -1.780091171   0.825623027
|158> C   5.683820585  -1.783410235   2.546417170
|159> H   5.340445492  -1.814134467   3.583904082
|160> H   6.255091750  -0.864500960   2.373477866
|161> H   6.318124312  -2.653917265   2.341240921
|162> O   3.008513329  -4.077296804   2.205052849
|163> H   3.600952247  -3.293343640   2.081078922
|164> C   3.413698687  -4.999152804   1.213529583
|165> H   2.677141565  -5.805820476   1.250508246
|166> H   4.410233455  -5.399632470   1.432393730
|167> H   3.419685405  -4.546257033   0.206276496
|168> *
|169> 
|170> 
|171> $new_job
|172> 
|173> # 16meoh.pires.deturi.4meoh.dset-orca.engrad-mp2.def2tzvp-1800.to.1819
|174> ! MP2 def2-TZVP EnGrad TightSCF FrozenCore
|175> 
|176> %pal
|177>     nprocs 12
|178> end
|179> 
|180> %maxcore 8000
|181> 
|182> %scf
|183>     ConvForced true
|184> end
|185> 
|186> *xyz 0 1
|187> O   0.126509440  -3.076363248  -1.256196668
|188> H   0.340008795  -3.093524223  -0.288451805
|189> C   1.318820081  -3.418433896  -1.929271824
|190> H   1.042211472  -3.479571685  -2.984824234
|191> H   1.717688319  -4.384686928  -1.592897088
|192> H   2.086886817  -2.645978282  -1.791305838
|193> O   5.209159061  -1.760286019  -0.887111380
|194> H   4.488190304  -1.244416518  -1.334663238
|195> C   5.098612890  -3.068562606  -1.410992649
|196> H   5.998675499  -3.590032498  -1.074395254
|197> H   5.058726259  -3.069197366  -2.505687480
|198> H   4.207235260  -3.583539786  -1.010262625
|199> O   4.503295638  -1.807526466   1.768213514
|200> H   4.809734628  -1.780091171   0.825623027
|201> C   5.683820585  -1.783410235   2.546417170
|202> H   5.340445492  -1.814134467   3.583904082
|203> H   6.255091750  -0.864500960   2.373477866
|204> H   6.318124312  -2.653917265   2.341240921
|205> O   3.008513329  -4.077296804   2.205052849
|206> H   3.600952247  -3.293343640   2.081078922
|207> C   3.413698687  -4.999152804   1.213529583
|208> H   2.677141565  -5.805820476   1.250508246
|209> H   4.410233455  -5.399632470   1.432393730
|210> H   3.419685405  -4.546257033   0.206276496
|211> *
|212> 
|213> 
|214> $new_job
|215> 
|216> # 16meoh.pires.deturi.4meoh.dset-orca.engrad-mp2.def2tzvp-1800.to.1819
|217> ! MP2 def2-TZVP EnGrad TightSCF FrozenCore
|218> 
|219> %pal
|220>     nprocs 12
|221> end
|222> 
|223> %maxcore 8000
|224> 
|225> %scf
|226>     ConvForced true
|227> end
|228> 
|229> *xyz 0 1
|230> O  -2.240549001  -4.340367635  -1.757085838
|231> H  -1.330244334  -3.974402199  -1.625908969
|232> C  -2.368613939  -5.344577342  -0.768563191
|233> H  -3.385879733  -5.728552846  -0.882562074
|234> H  -2.237606518  -4.939664632   0.242205144
|235> H  -1.650692371  -6.156309817  -0.932735905
|236> O  -3.745530256  -2.181170077  -0.940717811
|237> H  -3.256375244  -2.983228774  -1.256562685
|238> C  -4.830023615  -2.030924414  -1.835448747
|239> H  -5.367049145  -1.144924407  -1.481069017
|240> H  -5.495188050  -2.901194789  -1.805874980
|241> H  -4.486329742  -1.867261732  -2.863517219
|242> O   3.190012295  -0.294310707  -2.020941016
|243> H   2.714509117   0.163887168  -1.279560508
|244> C   3.773621856   0.754487110  -2.771105983
|245> H   4.169048413   0.279603731  -3.672411353
|246> H   4.589570778   1.231807210  -2.215189996
|247> H   3.027632133   1.516876814  -3.048043373
|248> O   5.209159061  -1.760286019  -0.887111380
|249> H   4.488190304  -1.244416518  -1.334663238
|250> C   5.098612890  -3.068562606  -1.410992649
|251> H   5.998675499  -3.590032498  -1.074395254
|252> H   5.058726259  -3.069197366  -2.505687480
|253> H   4.207235260  -3.583539786  -1.010262625
|254> *
|255> 
|256> 
|257> $new_job
|258> 
|259> # 16meoh.pires.deturi.4meoh.dset-orca.engrad-mp2.def2tzvp-1800.to.1819
|260> ! MP2 def2-TZVP EnGrad TightSCF FrozenCore
|261> 
|262> %pal
|263>     nprocs 12
|264> end
|265> 
|266> %maxcore 8000
|267> 
|268> %scf
|269>     ConvForced true
|270> end
|271> 
|272> *xyz 0 1
|273> O  -2.240549001  -4.340367635  -1.757085838
|274> H  -1.330244334  -3.974402199  -1.625908969
|275> C  -2.368613939  -5.344577342  -0.768563191
|276> H  -3.385879733  -5.728552846  -0.882562074
|277> H  -2.237606518  -4.939664632   0.242205144
|278> H  -1.650692371  -6.156309817  -0.932735905
|279> O  -3.745530256  -2.181170077  -0.940717811
|280> H  -3.256375244  -2.983228774  -1.256562685
|281> C  -4.830023615  -2.030924414  -1.835448747
|282> H  -5.367049145  -1.144924407  -1.481069017
|283> H  -5.495188050  -2.901194789  -1.805874980
|284> H  -4.486329742  -1.867261732  -2.863517219
|285> O   3.190012295  -0.294310707  -2.020941016
|286> H   2.714509117   0.163887168  -1.279560508
|287> C   3.773621856   0.754487110  -2.771105983
|288> H   4.169048413   0.279603731  -3.672411353
|289> H   4.589570778   1.231807210  -2.215189996
|290> H   3.027632133   1.516876814  -3.048043373
|291> O   4.503295638  -1.807526466   1.768213514
|292> H   4.809734628  -1.780091171   0.825623027
|293> C   5.683820585  -1.783410235   2.546417170
|294> H   5.340445492  -1.814134467   3.583904082
|295> H   6.255091750  -0.864500960   2.373477866
|296> H   6.318124312  -2.653917265   2.341240921
|297> *
|298> 
|299> 
|300> $new_job
|301> 
|302> # 16meoh.pires.deturi.4meoh.dset-orca.engrad-mp2.def2tzvp-1800.to.1819
|303> ! MP2 def2-TZVP EnGrad TightSCF FrozenCore
|304> 
|305> %pal
|306>     nprocs 12
|307> end
|308> 
|309> %maxcore 8000
|310> 
|311> %scf
|312>     ConvForced true
|313> end
|314> 
|315> *xyz 0 1
|316> O  -2.240549001  -4.340367635  -1.757085838
|317> H  -1.330244334  -3.974402199  -1.625908969
|318> C  -2.368613939  -5.344577342  -0.768563191
|319> H  -3.385879733  -5.728552846  -0.882562074
|320> H  -2.237606518  -4.939664632   0.242205144
|321> H  -1.650692371  -6.156309817  -0.932735905
|322> O  -3.745530256  -2.181170077  -0.940717811
|323> H  -3.256375244  -2.983228774  -1.256562685
|324> C  -4.830023615  -2.030924414  -1.835448747
|325> H  -5.367049145  -1.144924407  -1.481069017
|326> H  -5.495188050  -2.901194789  -1.805874980
|327> H  -4.486329742  -1.867261732  -2.863517219
|328> O   3.190012295  -0.294310707  -2.020941016
|329> H   2.714509117   0.163887168  -1.279560508
|330> C   3.773621856   0.754487110  -2.771105983
|331> H   4.169048413   0.279603731  -3.672411353
|332> H   4.589570778   1.231807210  -2.215189996
|333> H   3.027632133   1.516876814  -3.048043373
|334> O   3.008513329  -4.077296804   2.205052849
|335> H   3.600952247  -3.293343640   2.081078922
|336> C   3.413698687  -4.999152804   1.213529583
|337> H   2.677141565  -5.805820476   1.250508246
|338> H   4.410233455  -5.399632470   1.432393730
|339> H   3.419685405  -4.546257033   0.206276496
|340> *
|341> 
|342> 
|343> $new_job
|344> 
|345> # 16meoh.pires.deturi.4meoh.dset-orca.engrad-mp2.def2tzvp-1800.to.1819
|346> ! MP2 def2-TZVP EnGrad TightSCF FrozenCore
|347> 
|348> %pal
|349>     nprocs 12
|350> end
|351> 
|352> %maxcore 8000
|353> 
|354> %scf
|355>     ConvForced true
|356> end
|357> 
|358> *xyz 0 1
|359> O  -2.240549001  -4.340367635  -1.757085838
|360> H  -1.330244334  -3.974402199  -1.625908969
|361> C  -2.368613939  -5.344577342  -0.768563191
|362> H  -3.385879733  -5.728552846  -0.882562074
|363> H  -2.237606518  -4.939664632   0.242205144
|364> H  -1.650692371  -6.156309817  -0.932735905
|365> O  -3.745530256  -2.181170077  -0.940717811
|366> H  -3.256375244  -2.983228774  -1.256562685
|367> C  -4.830023615  -2.030924414  -1.835448747
|368> H  -5.367049145  -1.144924407  -1.481069017
|369> H  -5.495188050  -2.901194789  -1.805874980
|370> H  -4.486329742  -1.867261732  -2.863517219
|371> O   5.209159061  -1.760286019  -0.887111380
|372> H   4.488190304  -1.244416518  -1.334663238
|373> C   5.098612890  -3.068562606  -1.410992649
|374> H   5.998675499  -3.590032498  -1.074395254
|375> H   5.058726259  -3.069197366  -2.505687480
|376> H   4.207235260  -3.583539786  -1.010262625
|377> O   4.503295638  -1.807526466   1.768213514
|378> H   4.809734628  -1.780091171   0.825623027
|379> C   5.683820585  -1.783410235   2.546417170
|380> H   5.340445492  -1.814134467   3.583904082
|381> H   6.255091750  -0.864500960   2.373477866
|382> H   6.318124312  -2.653917265   2.341240921
|383> *
|384> 
|385> 
|386> $new_job
|387> 
|388> # 16meoh.pires.deturi.4meoh.dset-orca.engrad-mp2.def2tzvp-1800.to.1819
|389> ! MP2 def2-TZVP EnGrad TightSCF FrozenCore
|390> 
|391> %pal
|392>     nprocs 12
|393> end
|394> 
|395> %maxcore 8000
|396> 
|397> %scf
|398>     ConvForced true
|399> end
|400> 
|401> *xyz 0 1
|402> O  -2.240549001  -4.340367635  -1.757085838
|403> H  -1.330244334  -3.974402199  -1.625908969
|404> C  -2.368613939  -5.344577342  -0.768563191
|405> H  -3.385879733  -5.728552846  -0.882562074
|406> H  -2.237606518  -4.939664632   0.242205144
|407> H  -1.650692371  -6.156309817  -0.932735905
|408> O  -3.745530256  -2.181170077  -0.940717811
|409> H  -3.256375244  -2.983228774  -1.256562685
|410> C  -4.830023615  -2.030924414  -1.835448747
|411> H  -5.367049145  -1.144924407  -1.481069017
|412> H  -5.495188050  -2.901194789  -1.805874980
|413> H  -4.486329742  -1.867261732  -2.863517219
|414> O   5.209159061  -1.760286019  -0.887111380
|415> H   4.488190304  -1.244416518  -1.334663238
|416> C   5.098612890  -3.068562606  -1.410992649
|417> H   5.998675499  -3.590032498  -1.074395254
|418> H   5.058726259  -3.069197366  -2.505687480
|419> H   4.207235260  -3.583539786  -1.010262625
|420> O   3.008513329  -4.077296804   2.205052849
|421> H   3.600952247  -3.293343640   2.081078922
|422> C   3.413698687  -4.999152804   1.213529583
|423> H   2.677141565  -5.805820476   1.250508246
|424> H   4.410233455  -5.399632470   1.432393730
|425> H   3.419685405  -4.546257033   0.206276496
|426> *
|427> 
|428> 
|429> $new_job
|430> 
|431> # 16meoh.pires.deturi.4meoh.dset-orca.engrad-mp2.def2tzvp-1800.to.1819
|432> ! MP2 def2-TZVP EnGrad TightSCF FrozenCore
|433> 
|434> %pal
|435>     nprocs 12
|436> end
|437> 
|438> %maxcore 8000
|439> 
|440> %scf
|441>     ConvForced true
|442> end
|443> 
|444> *xyz 0 1
|445> O  -2.240549001  -4.340367635  -1.757085838
|446> H  -1.330244334  -3.974402199  -1.625908969
|447> C  -2.368613939  -5.344577342  -0.768563191
|448> H  -3.385879733  -5.728552846  -0.882562074
|449> H  -2.237606518  -4.939664632   0.242205144
|450> H  -1.650692371  -6.156309817  -0.932735905
|451> O  -3.745530256  -2.181170077  -0.940717811
|452> H  -3.256375244  -2.983228774  -1.256562685
|453> C  -4.830023615  -2.030924414  -1.835448747
|454> H  -5.367049145  -1.144924407  -1.481069017
|455> H  -5.495188050  -2.901194789  -1.805874980
|456> H  -4.486329742  -1.867261732  -2.863517219
|457> O   4.503295638  -1.807526466   1.768213514
|458> H   4.809734628  -1.780091171   0.825623027
|459> C   5.683820585  -1.783410235   2.546417170
|460> H   5.340445492  -1.814134467   3.583904082
|461> H   6.255091750  -0.864500960   2.373477866
|462> H   6.318124312  -2.653917265   2.341240921
|463> O   3.008513329  -4.077296804   2.205052849
|464> H   3.600952247  -3.293343640   2.081078922
|465> C   3.413698687  -4.999152804   1.213529583
|466> H   2.677141565  -5.805820476   1.250508246
|467> H   4.410233455  -5.399632470   1.432393730
|468> H   3.419685405  -4.546257033   0.206276496
|469> *
|470> 
|471> 
|472> $new_job
|473> 
|474> # 16meoh.pires.deturi.4meoh.dset-orca.engrad-mp2.def2tzvp-1800.to.1819
|475> ! MP2 def2-TZVP EnGrad TightSCF FrozenCore
|476> 
|477> %pal
|478>     nprocs 12
|479> end
|480> 
|481> %maxcore 8000
|482> 
|483> %scf
|484>     ConvForced true
|485> end
|486> 
|487> *xyz 0 1
|488> O  -2.240549001  -4.340367635  -1.757085838
|489> H  -1.330244334  -3.974402199  -1.625908969
|490> C  -2.368613939  -5.344577342  -0.768563191
|491> H  -3.385879733  -5.728552846  -0.882562074
|492> H  -2.237606518  -4.939664632   0.242205144
|493> H  -1.650692371  -6.156309817  -0.932735905
|494> O   3.190012295  -0.294310707  -2.020941016
|495> H   2.714509117   0.163887168  -1.279560508
|496> C   3.773621856   0.754487110  -2.771105983
|497> H   4.169048413   0.279603731  -3.672411353
|498> H   4.589570778   1.231807210  -2.215189996
|499> H   3.027632133   1.516876814  -3.048043373
|500> O   5.209159061  -1.760286019  -0.887111380
|501> H   4.488190304  -1.244416518  -1.334663238
|502> C   5.098612890  -3.068562606  -1.410992649
|503> H   5.998675499  -3.590032498  -1.074395254
|504> H   5.058726259  -3.069197366  -2.505687480
|505> H   4.207235260  -3.583539786  -1.010262625
|506> O   4.503295638  -1.807526466   1.768213514
|507> H   4.809734628  -1.780091171   0.825623027
|508> C   5.683820585  -1.783410235   2.546417170
|509> H   5.340445492  -1.814134467   3.583904082
|510> H   6.255091750  -0.864500960   2.373477866
|511> H   6.318124312  -2.653917265   2.341240921
|512> *
|513> 
|514> 
|515> $new_job
|516> 
|517> # 16meoh.pires.deturi.4meoh.dset-orca.engrad-mp2.def2tzvp-1800.to.1819
|518> ! MP2 def2-TZVP EnGrad TightSCF FrozenCore
|519> 
|520> %pal
|521>     nprocs 12
|522> end
|523> 
|524> %maxcore 8000
|525> 
|526> %scf
|527>     ConvForced true
|528> end
|529> 
|530> *xyz 0 1
|531> O  -2.240549001  -4.340367635  -1.757085838
|532> H  -1.330244334  -3.974402199  -1.625908969
|533> C  -2.368613939  -5.344577342  -0.768563191
|534> H  -3.385879733  -5.728552846  -0.882562074
|535> H  -2.237606518  -4.939664632   0.242205144
|536> H  -1.650692371  -6.156309817  -0.932735905
|537> O   3.190012295  -0.294310707  -2.020941016
|538> H   2.714509117   0.163887168  -1.279560508
|539> C   3.773621856   0.754487110  -2.771105983
|540> H   4.169048413   0.279603731  -3.672411353
|541> H   4.589570778   1.231807210  -2.215189996
|542> H   3.027632133   1.516876814  -3.048043373
|543> O   5.209159061  -1.760286019  -0.887111380
|544> H   4.488190304  -1.244416518  -1.334663238
|545> C   5.098612890  -3.068562606  -1.410992649
|546> H   5.998675499  -3.590032498  -1.074395254
|547> H   5.058726259  -3.069197366  -2.505687480
|548> H   4.207235260  -3.583539786  -1.010262625
|549> O   3.008513329  -4.077296804   2.205052849
|550> H   3.600952247  -3.293343640   2.081078922
|551> C   3.413698687  -4.999152804   1.213529583
|552> H   2.677141565  -5.805820476   1.250508246
|553> H   4.410233455  -5.399632470   1.432393730
|554> H   3.419685405  -4.546257033   0.206276496
|555> *
|556> 
|557> 
|558> $new_job
|559> 
|560> # 16meoh.pires.deturi.4meoh.dset-orca.engrad-mp2.def2tzvp-1800.to.1819
|561> ! MP2 def2-TZVP EnGrad TightSCF FrozenCore
|562> 
|563> %pal
|564>     nprocs 12
|565> end
|566> 
|567> %maxcore 8000
|568> 
|569> %scf
|570>     ConvForced true
|571> end
|572> 
|573> *xyz 0 1
|574> O  -2.240549001  -4.340367635  -1.757085838
|575> H  -1.330244334  -3.974402199  -1.625908969
|576> C  -2.368613939  -5.344577342  -0.768563191
|577> H  -3.385879733  -5.728552846  -0.882562074
|578> H  -2.237606518  -4.939664632   0.242205144
|579> H  -1.650692371  -6.156309817  -0.932735905
|580> O   3.190012295  -0.294310707  -2.020941016
|581> H   2.714509117   0.163887168  -1.279560508
|582> C   3.773621856   0.754487110  -2.771105983
|583> H   4.169048413   0.279603731  -3.672411353
|584> H   4.589570778   1.231807210  -2.215189996
|585> H   3.027632133   1.516876814  -3.048043373
|586> O   4.503295638  -1.807526466   1.768213514
|587> H   4.809734628  -1.780091171   0.825623027
|588> C   5.683820585  -1.783410235   2.546417170
|589> H   5.340445492  -1.814134467   3.583904082
|590> H   6.255091750  -0.864500960   2.373477866
|591> H   6.318124312  -2.653917265   2.341240921
|592> O   3.008513329  -4.077296804   2.205052849
|593> H   3.600952247  -3.293343640   2.081078922
|594> C   3.413698687  -4.999152804   1.213529583
|595> H   2.677141565  -5.805820476   1.250508246
|596> H   4.410233455  -5.399632470   1.432393730
|597> H   3.419685405  -4.546257033   0.206276496
|598> *
|599> 
|600> 
|601> $new_job
|602> 
|603> # 16meoh.pires.deturi.4meoh.dset-orca.engrad-mp2.def2tzvp-1800.to.1819
|604> ! MP2 def2-TZVP EnGrad TightSCF FrozenCore
|605> 
|606> %pal
|607>     nprocs 12
|608> end
|609> 
|610> %maxcore 8000
|611> 
|612> %scf
|613>     ConvForced true
|614> end
|615> 
|616> *xyz 0 1
|617> O  -2.240549001  -4.340367635  -1.757085838
|618> H  -1.330244334  -3.974402199  -1.625908969
|619> C  -2.368613939  -5.344577342  -0.768563191
|620> H  -3.385879733  -5.728552846  -0.882562074
|621> H  -2.237606518  -4.939664632   0.242205144
|622> H  -1.650692371  -6.156309817  -0.932735905
|623> O   5.209159061  -1.760286019  -0.887111380
|624> H   4.488190304  -1.244416518  -1.334663238
|625> C   5.098612890  -3.068562606  -1.410992649
|626> H   5.998675499  -3.590032498  -1.074395254
|627> H   5.058726259  -3.069197366  -2.505687480
|628> H   4.207235260  -3.583539786  -1.010262625
|629> O   4.503295638  -1.807526466   1.768213514
|630> H   4.809734628  -1.780091171   0.825623027
|631> C   5.683820585  -1.783410235   2.546417170
|632> H   5.340445492  -1.814134467   3.583904082
|633> H   6.255091750  -0.864500960   2.373477866
|634> H   6.318124312  -2.653917265   2.341240921
|635> O   3.008513329  -4.077296804   2.205052849
|636> H   3.600952247  -3.293343640   2.081078922
|637> C   3.413698687  -4.999152804   1.213529583
|638> H   2.677141565  -5.805820476   1.250508246
|639> H   4.410233455  -5.399632470   1.432393730
|640> H   3.419685405  -4.546257033   0.206276496
|641> *
|642> 
|643> 
|644> $new_job
|645> 
|646> # 16meoh.pires.deturi.4meoh.dset-orca.engrad-mp2.def2tzvp-1800.to.1819
|647> ! MP2 def2-TZVP EnGrad TightSCF FrozenCore
|648> 
|649> %pal
|650>     nprocs 12
|651> end
|652> 
|653> %maxcore 8000
|654> 
|655> %scf
|656>     ConvForced true
|657> end
|658> 
|659> *xyz 0 1
|660> O  -3.745530256  -2.181170077  -0.940717811
|661> H  -3.256375244  -2.983228774  -1.256562685
|662> C  -4.830023615  -2.030924414  -1.835448747
|663> H  -5.367049145  -1.144924407  -1.481069017
|664> H  -5.495188050  -2.901194789  -1.805874980
|665> H  -4.486329742  -1.867261732  -2.863517219
|666> O   3.190012295  -0.294310707  -2.020941016
|667> H   2.714509117   0.163887168  -1.279560508
|668> C   3.773621856   0.754487110  -2.771105983
|669> H   4.169048413   0.279603731  -3.672411353
|670> H   4.589570778   1.231807210  -2.215189996
|671> H   3.027632133   1.516876814  -3.048043373
|672> O   5.209159061  -1.760286019  -0.887111380
|673> H   4.488190304  -1.244416518  -1.334663238
|674> C   5.098612890  -3.068562606  -1.410992649
|675> H   5.998675499  -3.590032498  -1.074395254
|676> H   5.058726259  -3.069197366  -2.505687480
|677> H   4.207235260  -3.583539786  -1.010262625
|678> O   4.503295638  -1.807526466   1.768213514
|679> H   4.809734628  -1.780091171   0.825623027
|680> C   5.683820585  -1.783410235   2.546417170
|681> H   5.340445492  -1.814134467   3.583904082
|682> H   6.255091750  -0.864500960   2.373477866
|683> H   6.318124312  -2.653917265   2.341240921
|684> *
|685> 
|686> 
|687> $new_job
|688> 
|689> # 16meoh.pires.deturi.4meoh.dset-orca.engrad-mp2.def2tzvp-1800.to.1819
|690> ! MP2 def2-TZVP EnGrad TightSCF FrozenCore
|691> 
|692> %pal
|693>     nprocs 12
|694> end
|695> 
|696> %maxcore 8000
|697> 
|698> %scf
|699>     ConvForced true
|700> end
|701> 
|702> *xyz 0 1
|703> O  -3.745530256  -2.181170077  -0.940717811
|704> H  -3.256375244  -2.983228774  -1.256562685
|705> C  -4.830023615  -2.030924414  -1.835448747
|706> H  -5.367049145  -1.144924407  -1.481069017
|707> H  -5.495188050  -2.901194789  -1.805874980
|708> H  -4.486329742  -1.867261732  -2.863517219
|709> O   3.190012295  -0.294310707  -2.020941016
|710> H   2.714509117   0.163887168  -1.279560508
|711> C   3.773621856   0.754487110  -2.771105983
|712> H   4.169048413   0.279603731  -3.672411353
|713> H   4.589570778   1.231807210  -2.215189996
|714> H   3.027632133   1.516876814  -3.048043373
|715> O   5.209159061  -1.760286019  -0.887111380
|716> H   4.488190304  -1.244416518  -1.334663238
|717> C   5.098612890  -3.068562606  -1.410992649
|718> H   5.998675499  -3.590032498  -1.074395254
|719> H   5.058726259  -3.069197366  -2.505687480
|720> H   4.207235260  -3.583539786  -1.010262625
|721> O   3.008513329  -4.077296804   2.205052849
|722> H   3.600952247  -3.293343640   2.081078922
|723> C   3.413698687  -4.999152804   1.213529583
|724> H   2.677141565  -5.805820476   1.250508246
|725> H   4.410233455  -5.399632470   1.432393730
|726> H   3.419685405  -4.546257033   0.206276496
|727> *
|728> 
|729> 
|730> $new_job
|731> 
|732> # 16meoh.pires.deturi.4meoh.dset-orca.engrad-mp2.def2tzvp-1800.to.1819
|733> ! MP2 def2-TZVP EnGrad TightSCF FrozenCore
|734> 
|735> %pal
|736>     nprocs 12
|737> end
|738> 
|739> %maxcore 8000
|740> 
|741> %scf
|742>     ConvForced true
|743> end
|744> 
|745> *xyz 0 1
|746> O  -3.745530256  -2.181170077  -0.940717811
|747> H  -3.256375244  -2.983228774  -1.256562685
|748> C  -4.830023615  -2.030924414  -1.835448747
|749> H  -5.367049145  -1.144924407  -1.481069017
|750> H  -5.495188050  -2.901194789  -1.805874980
|751> H  -4.486329742  -1.867261732  -2.863517219
|752> O   3.190012295  -0.294310707  -2.020941016
|753> H   2.714509117   0.163887168  -1.279560508
|754> C   3.773621856   0.754487110  -2.771105983
|755> H   4.169048413   0.279603731  -3.672411353
|756> H   4.589570778   1.231807210  -2.215189996
|757> H   3.027632133   1.516876814  -3.048043373
|758> O   4.503295638  -1.807526466   1.768213514
|759> H   4.809734628  -1.780091171   0.825623027
|760> C   5.683820585  -1.783410235   2.546417170
|761> H   5.340445492  -1.814134467   3.583904082
|762> H   6.255091750  -0.864500960   2.373477866
|763> H   6.318124312  -2.653917265   2.341240921
|764> O   3.008513329  -4.077296804   2.205052849
|765> H   3.600952247  -3.293343640   2.081078922
|766> C   3.413698687  -4.999152804   1.213529583
|767> H   2.677141565  -5.805820476   1.250508246
|768> H   4.410233455  -5.399632470   1.432393730
|769> H   3.419685405  -4.546257033   0.206276496
|770> *
|771> 
|772> 
|773> $new_job
|774> 
|775> # 16meoh.pires.deturi.4meoh.dset-orca.engrad-mp2.def2tzvp-1800.to.1819
|776> ! MP2 def2-TZVP EnGrad TightSCF FrozenCore
|777> 
|778> %pal
|779>     nprocs 12
|780> end
|781> 
|782> %maxcore 8000
|783> 
|784> %scf
|785>     ConvForced true
|786> end
|787> 
|788> *xyz 0 1
|789> O  -3.745530256  -2.181170077  -0.940717811
|790> H  -3.256375244  -2.983228774  -1.256562685
|791> C  -4.830023615  -2.030924414  -1.835448747
|792> H  -5.367049145  -1.144924407  -1.481069017
|793> H  -5.495188050  -2.901194789  -1.805874980
|794> H  -4.486329742  -1.867261732  -2.863517219
|795> O   5.209159061  -1.760286019  -0.887111380
|796> H   4.488190304  -1.244416518  -1.334663238
|797> C   5.098612890  -3.068562606  -1.410992649
|798> H   5.998675499  -3.590032498  -1.074395254
|799> H   5.058726259  -3.069197366  -2.505687480
|800> H   4.207235260  -3.583539786  -1.010262625
|801> O   4.503295638  -1.807526466   1.768213514
|802> H   4.809734628  -1.780091171   0.825623027
|803> C   5.683820585  -1.783410235   2.546417170
|804> H   5.340445492  -1.814134467   3.583904082
|805> H   6.255091750  -0.864500960   2.373477866
|806> H   6.318124312  -2.653917265   2.341240921
|807> O   3.008513329  -4.077296804   2.205052849
|808> H   3.600952247  -3.293343640   2.081078922
|809> C   3.413698687  -4.999152804   1.213529583
|810> H   2.677141565  -5.805820476   1.250508246
|811> H   4.410233455  -5.399632470   1.432393730
|812> H   3.419685405  -4.546257033   0.206276496
|813> *
|814> 
|815> 
|816> $new_job
|817> 
|818> # 16meoh.pires.deturi.4meoh.dset-orca.engrad-mp2.def2tzvp-1800.to.1819
|819> ! MP2 def2-TZVP EnGrad TightSCF FrozenCore
|820> 
|821> %pal
|822>     nprocs 12
|823> end
|824> 
|825> %maxcore 8000
|826> 
|827> %scf
|828>     ConvForced true
|829> end
|830> 
|831> *xyz 0 1
|832> O   3.190012295  -0.294310707  -2.020941016
|833> H   2.714509117   0.163887168  -1.279560508
|834> C   3.773621856   0.754487110  -2.771105983
|835> H   4.169048413   0.279603731  -3.672411353
|836> H   4.589570778   1.231807210  -2.215189996
|837> H   3.027632133   1.516876814  -3.048043373
|838> O   5.209159061  -1.760286019  -0.887111380
|839> H   4.488190304  -1.244416518  -1.334663238
|840> C   5.098612890  -3.068562606  -1.410992649
|841> H   5.998675499  -3.590032498  -1.074395254
|842> H   5.058726259  -3.069197366  -2.505687480
|843> H   4.207235260  -3.583539786  -1.010262625
|844> O   4.503295638  -1.807526466   1.768213514
|845> H   4.809734628  -1.780091171   0.825623027
|846> C   5.683820585  -1.783410235   2.546417170
|847> H   5.340445492  -1.814134467   3.583904082
|848> H   6.255091750  -0.864500960   2.373477866
|849> H   6.318124312  -2.653917265   2.341240921
|850> O   3.008513329  -4.077296804   2.205052849
|851> H   3.600952247  -3.293343640   2.081078922
|852> C   3.413698687  -4.999152804   1.213529583
|853> H   2.677141565  -5.805820476   1.250508246
|854> H   4.410233455  -5.399632470   1.432393730
|855> H   3.419685405  -4.546257033   0.206276496
|856> *
|857> 
|858>                          ****END OF INPUT****
================================================================================


                 $$$$$$$$$$$$$$$$$$$$$$$$$$$$$$$$$$$$$$$$$$$$$$ 
                 $ THERE ARE 20 JOBS TO BE PROCESSED THIS RUN $
                 $$$$$$$$$$$$$$$$$$$$$$$$$$$$$$$$$$$$$$$$$$$$$$ 




                 $$$$$$$$$$$$$$$$  JOB NUMBER  1 $$$$$$$$$$$$$$


                     *******************************
                     * Energy+Gradient Calculation *
                     *******************************

---------------------------------
CARTESIAN COORDINATES (ANGSTROEM)
---------------------------------
  O      0.126509   -3.076363   -1.256197
  H      0.340009   -3.093524   -0.288452
  C      1.318820   -3.418434   -1.929272
  H      1.042211   -3.479572   -2.984824
  H      1.717688   -4.384687   -1.592897
  H      2.086887   -2.645978   -1.791306
  O     -3.745530   -2.181170   -0.940718
  H     -3.256375   -2.983229   -1.256563
  C     -4.830024   -2.030924   -1.835449
  H     -5.367049   -1.144924   -1.481069
  H     -5.495188   -2.901195   -1.805875
  H     -4.486330   -1.867262   -2.863517
  O      4.503296   -1.807526    1.768214
  H      4.809735   -1.780091    0.825623
  C      5.683821   -1.783410    2.546417
  H      5.340445   -1.814134    3.583904
  H      6.255092   -0.864501    2.373478
  H      6.318124   -2.653917    2.341241
  O      3.008513   -4.077297    2.205053
  H      3.600952   -3.293344    2.081079
  C      3.413699   -4.999153    1.213530
  H      2.677142   -5.805820    1.250508
  H      4.410233   -5.399632    1.432394
  H      3.419685   -4.546257    0.206276

----------------------------
CARTESIAN COORDINATES (A.U.)
----------------------------
  NO LB      ZA    FRAG     MASS         X           Y           Z
   0 O     8.0000    0    15.999    0.239068   -5.813484   -2.373868
   1 H     1.0000    0     1.008    0.642524   -5.845914   -0.545095
   2 C     6.0000    0    12.011    2.492209   -6.459904   -3.645795
   3 H     1.0000    0     1.008    1.969494   -6.575438   -5.640500
   4 H     1.0000    0     1.008    3.245961   -8.285857   -3.010139
   5 H     1.0000    0     1.008    3.943645   -5.000174   -3.385077
   6 O     8.0000    0    15.999   -7.078026   -4.121814   -1.777699
   7 H     1.0000    0     1.008   -6.153657   -5.637485   -2.374559
   8 C     6.0000    0    12.011   -9.127422   -3.837891   -3.468495
   9 H     1.0000    0     1.008  -10.142253   -2.163594   -2.798815
  10 H     1.0000    0     1.008  -10.384400   -5.482464   -3.412609
  11 H     1.0000    0     1.008   -8.477935   -3.528613   -5.411263
  12 O     8.0000    0    15.999    8.509995   -3.415730    3.341439
  13 H     1.0000    0     1.008    9.089081   -3.363885    1.560201
  14 C     6.0000    0    12.011   10.740864   -3.370157    4.812031
  15 H     1.0000    0     1.008   10.091979   -3.428217    6.772597
  16 H     1.0000    0     1.008   11.820410   -1.633670    4.485223
  17 H     1.0000    0     1.008   11.939525   -5.015177    4.424304
  18 O     8.0000    0    15.999    5.685266   -7.704974    4.166946
  19 H     1.0000    0     1.008    6.804814   -6.223518    3.932669
  20 C     6.0000    0    12.011    6.450956   -9.447030    2.293239
  21 H     1.0000    0     1.008    5.059064  -10.971411    2.363118
  22 H     1.0000    0     1.008    8.334133  -10.203827    2.706832
  23 H     1.0000    0     1.008    6.462269   -8.591181    0.389806

--------------------------------
INTERNAL COORDINATES (ANGSTROEM)
--------------------------------
 O      0   0   0     0.000000000000     0.00000000     0.00000000
 H      1   0   0     0.991164261619     0.00000000     0.00000000
 C      1   2   0     1.411257297054   106.22934227     0.00000000
 H      3   1   2     1.092904864146   105.09160572   175.19946945
 H      3   1   2     1.098129662724   111.96619169    56.06489900
 H      3   1   2     1.098020400467   111.13294061   293.83719264
 O      1   2   3     3.986676451635    97.80678877   178.03883299
 H      7   1   2     0.991124998994    46.66418407   246.78560136
 C      7   1   2     1.413945915798   135.94958199   183.88441935
 H      9   7   1     1.094978276182   104.91303897   222.07915065
 H      9   7   1     1.095759489526   111.35359974   103.54568906
 H      9   7   1     1.096282689336   111.64279886   340.78260334
 O      6   3   1     4.383173628231   128.47985406    74.73436795
 H     13   6   3     0.991531328898    53.39246973   140.84093393
 C     13   6   3     1.414150512958   155.55616549   107.72383980
 H     15  13   6     1.093265532932   105.04325064   207.06960686
 H     15  13   6     1.095743127977   111.26444916    88.43986905
 H     15  13   6     1.096458389780   111.49475785   325.80997472
 O     13   6   3     2.752646025766    70.83883041     5.72702756
 H     19  13   6     0.990422116818     4.15455131   139.66070745
 C     19  13   6     1.413192147619   105.71469742    60.51176472
 H     21  19  13     1.092976005471   105.33652580   191.93870911
 H     21  19  13     1.096068894529   111.03411081    73.31491729
 H     21  19  13     1.104404455557   111.95938381   311.11830927

---------------------------
INTERNAL COORDINATES (A.U.)
---------------------------
 O      0   0   0     0.000000000000     0.00000000     0.00000000
 H      1   0   0     1.873029008191     0.00000000     0.00000000
 C      1   2   0     2.666889795931   106.22934227     0.00000000
 H      3   1   2     2.065290883666   105.09160572   175.19946945
 H      3   1   2     2.075164322083   111.96619169    56.06489900
 H      3   1   2     2.074957846342   111.13294061   293.83719264
 O      1   2   3     7.533726678143    97.80678877   178.03883299
 H      7   1   2     1.872954812581    46.66418407   246.78560136
 C      7   1   2     2.671970549034   135.94958199   183.88441935
 H      9   7   1     2.069209064577   104.91303897   222.07915065
 H      9   7   1     2.070685343849   111.35359974   103.54568906
 H      9   7   1     2.071674048204   111.64279886   340.78260334
 O      6   3   1     8.282997754783   128.47985406    74.73436795
 H     13   6   3     1.873722664821    53.39246973   140.84093393
 C     13   6   3     2.672357181634   155.55616549   107.72383980
 H     15  13   6     2.065972448896   105.04325064   207.06960686
 H     15  13   6     2.070654425003   111.26444916    88.43986905
 H     15  13   6     2.072006073925   111.49475785   325.80997472
 O     13   6   3     5.201747132325    70.83883041     5.72702756
 H     19  13   6     1.871626557765     4.15455131   139.66070745
 C     19  13   6     2.670546133609   105.71469742    60.51176472
 H     21  19  13     2.065425321288   105.33652580   191.93870911
 H     21  19  13     2.071270034570   111.03411081    73.31491729
 H     21  19  13     2.087021962084   111.95938381   311.11830927

---------------------
BASIS SET INFORMATION
---------------------
There are 3 groups of distinct atoms

 Group   1 Type O   : 11s6p2d1f contracted to 5s3p2d1f pattern {62111/411/11/1}
 Group   2 Type H   : 5s1p contracted to 3s1p pattern {311/1}
 Group   3 Type C   : 11s6p2d1f contracted to 5s3p2d1f pattern {62111/411/11/1}

Atom   0O    basis set group =>   1
Atom   1H    basis set group =>   2
Atom   2C    basis set group =>   3
Atom   3H    basis set group =>   2
Atom   4H    basis set group =>   2
Atom   5H    basis set group =>   2
Atom   6O    basis set group =>   1
Atom   7H    basis set group =>   2
Atom   8C    basis set group =>   3
Atom   9H    basis set group =>   2
Atom  10H    basis set group =>   2
Atom  11H    basis set group =>   2
Atom  12O    basis set group =>   1
Atom  13H    basis set group =>   2
Atom  14C    basis set group =>   3
Atom  15H    basis set group =>   2
Atom  16H    basis set group =>   2
Atom  17H    basis set group =>   2
Atom  18O    basis set group =>   1
Atom  19H    basis set group =>   2
Atom  20C    basis set group =>   3
Atom  21H    basis set group =>   2
Atom  22H    basis set group =>   2
Atom  23H    basis set group =>   2


           ************************************************************
           *        Program running with 12 parallel MPI-processes    *
           *              working on a common directory               *
           ************************************************************
------------------------------------------------------------------------------
                           ORCA GTO INTEGRAL CALCULATION
------------------------------------------------------------------------------

                         BASIS SET STATISTICS AND STARTUP INFO

 # of primitive gaussian shells          ...  256
 # of primitive gaussian functions       ...  496
 # of contracted shells                  ...  152
 # of contracted basis functions         ...  344
 Highest angular momentum                ...    3
 Maximum contraction depth               ...    6
 Integral package used                   ... LIBINT
 Integral threshhold            Thresh   ...  2.500e-11
 Primitive cut-off              TCut     ...  2.500e-12


------------------------------ INTEGRAL EVALUATION ----------------------------


 * One electron integrals 
 Pre-screening matrix                    ... done
 Shell pair data                         ... done (   0.002 sec)



           ************************************************************
           *        Program running with 12 parallel MPI-processes    *
           *              working on a common directory               *
           ************************************************************
-------------------------------------------------------------------------------
                                 ORCA SCF
-------------------------------------------------------------------------------

------------
SCF SETTINGS
------------
Hamiltonian:
 Ab initio Hamiltonian  Method          .... Hartree-Fock(GTOs)


General Settings:
 Integral files         IntName         .... 16meoh.pires.deturi.4meoh.dset-orca.engrad-mp2.def2tzvp-1800.to.1819
 Hartree-Fock type      HFTyp           .... RHF
 Total Charge           Charge          ....    0
 Multiplicity           Mult            ....    1
 Number of Electrons    NEL             ....   72
 Basis Dimension        Dim             ....  344
 Nuclear Repulsion      ENuc            ....    350.8436730873 Eh

Convergence Acceleration:
 DIIS                   CNVDIIS         .... on
   Start iteration      DIISMaxIt       ....    12
   Startup error        DIISStart       ....  0.200000
   # of expansion vecs  DIISMaxEq       ....     5
   Bias factor          DIISBfac        ....   1.050
   Max. coefficient     DIISMaxC        ....  10.000
 Newton-Raphson         CNVNR           .... off
 SOSCF                  CNVSOSCF        .... on
   Start iteration      SOSCFMaxIt      ....   150
   Startup grad/error   SOSCFStart      ....  0.003300
 Level Shifting         CNVShift        .... on
   Level shift para.    LevelShift      ....    0.2500
   Turn off err/grad.   ShiftErr        ....    0.0010
 Zerner damping         CNVZerner       .... off
 Static damping         CNVDamp         .... on
   Fraction old density DampFac         ....    0.7000
   Max. Damping (<1)    DampMax         ....    0.9800
   Min. Damping (>=0)   DampMin         ....    0.0000
   Turn off err/grad.   DampErr         ....    0.1000
 Fernandez-Rico         CNVRico         .... off

SCF Procedure:
 Maximum # iterations   MaxIter         ....   125
 SCF integral mode      SCFMode         .... Direct
   Integral package                     .... LIBINT
 Reset frequency        DirectResetFreq ....    20
 Integral Threshold     Thresh          ....  2.500e-11 Eh
 Primitive CutOff       TCut            ....  2.500e-12 Eh

Convergence Tolerance:
 Convergence Check Mode ConvCheckMode   .... Total+1el-Energy
 Convergence forced     ConvForced      .... 1
 Energy Change          TolE            ....  1.000e-08 Eh
 1-El. energy change                    ....  1.000e-05 Eh
 Orbital Gradient       TolG            ....  1.000e-05
 Orbital Rotation angle TolX            ....  1.000e-05
 DIIS Error             TolErr          ....  5.000e-07


Diagonalization of the overlap matrix:
Smallest eigenvalue                        ... 1.250e-03
Time for diagonalization                   ...    0.015 sec
Threshold for overlap eigenvalues          ... 1.000e-08
Number of eigenvalues below threshold      ... 0
Time for construction of square roots      ...    0.009 sec
Total time needed                          ...    0.025 sec

-------------------
DFT GRID GENERATION
-------------------

General Integration Accuracy     IntAcc      ...  4.340
Radial Grid Type                 RadialGrid  ... Gauss-Chebyshev
Angular Grid (max. acc.)         AngularGrid ... Lebedev-110
Angular grid pruning method      GridPruning ... 3 (G Style)
Weight generation scheme         WeightScheme... Becke
Basis function cutoff            BFCut       ...    1.0000e-11
Integration weight cutoff        WCut        ...    1.0000e-14
Grids for H and He will be reduced by one unit

# of grid points (after initial pruning)     ...  26192 (   0.0 sec)
# of grid points (after weights+screening)   ...  24631 (   0.0 sec)
nearest neighbour list constructed           ...    0.0 sec
Grid point re-assignment to atoms done       ...    0.0 sec
Grid point division into batches done        ...    0.0 sec
Reduced shell lists constructed in    0.0 sec

Total number of grid points                  ...    24631
Total number of batches                      ...      398
Average number of points per batch           ...       61
Average number of grid points per atom       ...     1026
Average number of shells per batch           ...    75.43 (49.62%)
Average number of basis functions per batch  ...   156.23 (45.42%)
Average number of large shells per batch     ...    52.26 (69.28%)
Average number of large basis fcns per batch ...   110.77 (70.90%)
Maximum spatial batch extension              ...   6.69, 11.29,  8.30 au
Average spatial batch extension              ...   0.22,  0.26,  0.21 au

Time for grid setup =    0.060 sec

------------------------------
INITIAL GUESS: MODEL POTENTIAL
------------------------------
Loading Hartree-Fock densities                     ... done
Calculating cut-offs                               ... done
Setting up the integral package                    ... done
Initializing the effective Hamiltonian             ... done
Starting the Coulomb interaction                   ... done (   0.0 sec)
Reading the grid                                   ... done
Mapping shells                                     ... done
Starting the XC term evaluation                    ... done (   0.0 sec)
Transforming the Hamiltonian                       ... done (   0.0 sec)
Diagonalizing the Hamiltonian                      ... done (   0.0 sec)
Back transforming the eigenvectors                 ... done (   0.0 sec)
Now organizing SCF variables                       ... done
                      ------------------
                      INITIAL GUESS DONE (   0.2 sec)
                      ------------------
--------------
SCF ITERATIONS
--------------
ITER       Energy         Delta-E        Max-DP      RMS-DP      [F,P]     Damp
               ***  Starting incremental Fock matrix formation  ***
  0   -459.8928566744   0.000000000000 0.03671552  0.00067319  0.2917724 0.7000
  1   -460.0629049584  -0.170048284017 0.02510270  0.00050258  0.2184874 0.7000
                               ***Turning on DIIS***
  2   -460.1616218937  -0.098716935302 0.01465756  0.00031228  0.1627476 0.7000
  3   -461.3144176904  -1.152795796718 0.00772678  0.00017688  0.1199668 0.7000
  4   -461.1179019005   0.196515789963 0.01806346  0.00042684  0.0845903 0.0000
  5   -460.4013774529   0.716524447507 0.00232099  0.00005852  0.0064101 0.0000
                      *** Initiating the SOSCF procedure ***
                           *** Shutting down DIIS ***
                      *** Re-Reading the Fockian *** 
                      *** Removing any level shift *** 
ITER      Energy       Delta-E        Grad      Rot      Max-DP    RMS-DP
  6   -460.37007637   0.0313010857  0.000556  0.000556  0.000854  0.000030
               *** Restarting incremental Fock matrix formation ***
  7   -460.36308941   0.0069869542  0.000296  0.000416  0.000526  0.000016
  8   -460.36309917  -0.0000097603  0.000133  0.000303  0.000416  0.000012
  9   -460.36310156  -0.0000023848  0.000033  0.000031  0.000058  0.000002
 10   -460.36310164  -0.0000000828  0.000006  0.000010  0.000019  0.000001
                  ***Gradient check signals convergence***
              ***Rediagonalizing the Fockian in SOSCF/NRSCF***

               *****************************************************
               *                     SUCCESS                       *
               *           SCF CONVERGED AFTER  11 CYCLES          *
               *****************************************************


----------------
TOTAL SCF ENERGY
----------------

Total Energy       :         -460.36310165 Eh          -12527.11686 eV

Components:
Nuclear Repulsion  :          350.84367309 Eh            9546.94170 eV
Electronic Energy  :         -811.20677473 Eh          -22074.05856 eV
One Electron Energy:        -1326.83313344 Eh          -36104.96510 eV
Two Electron Energy:          515.62635871 Eh           14030.90654 eV

Virial components:
Potential Energy   :         -920.07543336 Eh          -25036.52537 eV
Kinetic Energy     :          459.71233172 Eh           12509.40851 eV
Virial Ratio       :            2.00141560


---------------
SCF CONVERGENCE
---------------

  Last Energy change         ...   -5.8308e-09  Tolerance :   1.0000e-08
  Last MAX-Density change    ...    7.8541e-06  Tolerance :   1.0000e-07
  Last RMS-Density change    ...    1.3770e-07  Tolerance :   5.0000e-09
  Last Orbital Gradient      ...    2.0889e-06  Tolerance :   1.0000e-05
  Last Orbital Rotation      ...    4.8389e-06  Tolerance :   1.0000e-05

             **** THE GBW FILE WAS UPDATED (16meoh.pires.deturi.4meoh.dset-orca.engrad-mp2.def2tzvp-1800.to.1819.gbw) ****
             **** DENSITY FILE WAS UPDATED (16meoh.pires.deturi.4meoh.dset-orca.engrad-mp2.def2tzvp-1800.to.1819.scfp) ****
             **** ENERGY FILE WAS UPDATED (16meoh.pires.deturi.4meoh.dset-orca.engrad-mp2.def2tzvp-1800.to.1819.en.tmp) ****
             **** THE GBW FILE WAS UPDATED (16meoh.pires.deturi.4meoh.dset-orca.engrad-mp2.def2tzvp-1800.to.1819.gbw) ****
             **** DENSITY FILE WAS UPDATED (16meoh.pires.deturi.4meoh.dset-orca.engrad-mp2.def2tzvp-1800.to.1819.scfp) ****
----------------
ORBITAL ENERGIES
----------------

  NO   OCC          E(Eh)            E(eV) 
   0   2.0000     -20.594241      -560.3978 
   1   2.0000     -20.553187      -559.2807 
   2   2.0000     -20.542570      -558.9917 
   3   2.0000     -20.528980      -558.6219 
   4   2.0000     -11.292491      -307.2843 
   5   2.0000     -11.269251      -306.6519 
   6   2.0000     -11.262621      -306.4715 
   7   2.0000     -11.258880      -306.3697 
   8   2.0000      -1.392369       -37.8883 
   9   2.0000      -1.349301       -36.7163 
  10   2.0000      -1.338227       -36.4150 
  11   2.0000      -1.331364       -36.2283 
  12   2.0000      -0.944669       -25.7057 
  13   2.0000      -0.917181       -24.9578 
  14   2.0000      -0.907465       -24.6934 
  15   2.0000      -0.906209       -24.6592 
  16   2.0000      -0.722606       -19.6631 
  17   2.0000      -0.687076       -18.6963 
  18   2.0000      -0.683499       -18.5989 
  19   2.0000      -0.672577       -18.3018 
  20   2.0000      -0.642043       -17.4709 
  21   2.0000      -0.619203       -16.8494 
  22   2.0000      -0.617720       -16.8090 
  23   2.0000      -0.609064       -16.5735 
  24   2.0000      -0.607790       -16.5388 
  25   2.0000      -0.587412       -15.9843 
  26   2.0000      -0.575031       -15.6474 
  27   2.0000      -0.572489       -15.5782 
  28   2.0000      -0.534044       -14.5321 
  29   2.0000      -0.501631       -13.6501 
  30   2.0000      -0.497326       -13.5329 
  31   2.0000      -0.490368       -13.3436 
  32   2.0000      -0.469134       -12.7658 
  33   2.0000      -0.446115       -12.1394 
  34   2.0000      -0.435936       -11.8624 
  35   2.0000      -0.430153       -11.7051 
  36   0.0000       0.100263         2.7283 
  37   0.0000       0.138236         3.7616 
  38   0.0000       0.149081         4.0567 
  39   0.0000       0.157531         4.2866 
  40   0.0000       0.170489         4.6393 
  41   0.0000       0.185008         5.0343 
  42   0.0000       0.195202         5.3117 
  43   0.0000       0.207241         5.6393 
  44   0.0000       0.211478         5.7546 
  45   0.0000       0.218008         5.9323 
  46   0.0000       0.227102         6.1798 
  47   0.0000       0.233909         6.3650 
  48   0.0000       0.237142         6.4530 
  49   0.0000       0.238833         6.4990 
  50   0.0000       0.246863         6.7175 
  51   0.0000       0.249511         6.7895 
  52   0.0000       0.268396         7.3034 
  53   0.0000       0.278359         7.5745 
  54   0.0000       0.279864         7.6155 
  55   0.0000       0.319443         8.6925 
  56   0.0000       0.322497         8.7756 
  57   0.0000       0.334310         9.0970 
  58   0.0000       0.339064         9.2264 
  59   0.0000       0.348785         9.4909 
  60   0.0000       0.352033         9.5793 
  61   0.0000       0.359228         9.7751 
  62   0.0000       0.393452        10.7064 
  63   0.0000       0.440260        11.9801 
  64   0.0000       0.461031        12.5453 
  65   0.0000       0.469999        12.7893 
  66   0.0000       0.474714        12.9176 
  67   0.0000       0.502531        13.6746 
  68   0.0000       0.517643        14.0858 
  69   0.0000       0.532575        14.4921 
  70   0.0000       0.550472        14.9791 
  71   0.0000       0.563363        15.3299 
  72   0.0000       0.569020        15.4838 
  73   0.0000       0.583936        15.8897 
  74   0.0000       0.594697        16.1825 
  75   0.0000       0.599533        16.3141 
  76   0.0000       0.611319        16.6348 
  77   0.0000       0.616409        16.7733 
  78   0.0000       0.618202        16.8221 
  79   0.0000       0.628061        17.0904 
  80   0.0000       0.631395        17.1811 
  81   0.0000       0.634850        17.2751 
  82   0.0000       0.642952        17.4956 
  83   0.0000       0.658615        17.9218 
  84   0.0000       0.666602        18.1392 
  85   0.0000       0.667962        18.1762 
  86   0.0000       0.672407        18.2971 
  87   0.0000       0.678973        18.4758 
  88   0.0000       0.697861        18.9898 
  89   0.0000       0.704120        19.1601 
  90   0.0000       0.713727        19.4215 
  91   0.0000       0.726724        19.7752 
  92   0.0000       0.734242        19.9797 
  93   0.0000       0.747039        20.3280 
  94   0.0000       0.761088        20.7102 
  95   0.0000       0.763601        20.7786 
  96   0.0000       0.797903        21.7121 
  97   0.0000       0.810271        22.0486 
  98   0.0000       0.832578        22.6556 
  99   0.0000       0.876535        23.8517 
 100   0.0000       0.881525        23.9875 
 101   0.0000       0.890200        24.2236 
 102   0.0000       0.899024        24.4637 
 103   0.0000       0.909397        24.7460 
 104   0.0000       0.923678        25.1346 
 105   0.0000       0.936191        25.4750 
 106   0.0000       0.948622        25.8133 
 107   0.0000       0.956209        26.0198 
 108   0.0000       0.958191        26.0737 
 109   0.0000       0.984930        26.8013 
 110   0.0000       1.020291        27.7635 
 111   0.0000       1.051798        28.6209 
 112   0.0000       1.084028        29.4979 
 113   0.0000       1.096601        29.8400 
 114   0.0000       1.100441        29.9445 
 115   0.0000       1.111100        30.2346 
 116   0.0000       1.136293        30.9201 
 117   0.0000       1.158123        31.5141 
 118   0.0000       1.183256        32.1980 
 119   0.0000       1.204293        32.7705 
 120   0.0000       1.240486        33.7553 
 121   0.0000       1.257712        34.2241 
 122   0.0000       1.265087        34.4248 
 123   0.0000       1.289125        35.0789 
 124   0.0000       1.540400        41.9164 
 125   0.0000       1.545867        42.0652 
 126   0.0000       1.550309        42.1861 
 127   0.0000       1.576639        42.9025 
 128   0.0000       1.649983        44.8983 
 129   0.0000       1.657609        45.1058 
 130   0.0000       1.664465        45.2924 
 131   0.0000       1.673875        45.5485 
 132   0.0000       1.697057        46.1793 
 133   0.0000       1.720129        46.8071 
 134   0.0000       1.723122        46.8885 
 135   0.0000       1.735000        47.2117 
 136   0.0000       1.762982        47.9732 
 137   0.0000       1.766995        48.0824 
 138   0.0000       1.771849        48.2145 
 139   0.0000       1.778623        48.3988 
 140   0.0000       1.786330        48.6085 
 141   0.0000       1.791767        48.7564 
 142   0.0000       1.796340        48.8809 
 143   0.0000       1.799488        48.9666 
 144   0.0000       1.813212        49.3400 
 145   0.0000       1.814919        49.3865 
 146   0.0000       1.827856        49.7385 
 147   0.0000       1.837788        50.0088 
 148   0.0000       1.849136        50.3176 
 149   0.0000       1.850075        50.3431 
 150   0.0000       1.869793        50.8797 
 151   0.0000       1.876643        51.0660 
 152   0.0000       1.878795        51.1246 
 153   0.0000       1.885764        51.3143 
 154   0.0000       1.899901        51.6989 
 155   0.0000       1.925492        52.3953 
 156   0.0000       1.974070        53.7172 
 157   0.0000       1.984316        53.9960 
 158   0.0000       2.003106        54.5073 
 159   0.0000       2.084930        56.7338 
 160   0.0000       2.145824        58.3908 
 161   0.0000       2.159904        58.7740 
 162   0.0000       2.171316        59.0845 
 163   0.0000       2.173607        59.1469 
 164   0.0000       2.223384        60.5014 
 165   0.0000       2.230420        60.6928 
 166   0.0000       2.239155        60.9305 
 167   0.0000       2.245230        61.0958 
 168   0.0000       2.251430        61.2645 
 169   0.0000       2.258046        61.4446 
 170   0.0000       2.260410        61.5089 
 171   0.0000       2.273636        61.8688 
 172   0.0000       2.275866        61.9295 
 173   0.0000       2.293616        62.4125 
 174   0.0000       2.293970        62.4221 
 175   0.0000       2.304240        62.7015 
 176   0.0000       2.322353        63.1944 
 177   0.0000       2.340346        63.6841 
 178   0.0000       2.345731        63.8306 
 179   0.0000       2.376281        64.6619 
 180   0.0000       2.452843        66.7452 
 181   0.0000       2.457442        66.8704 
 182   0.0000       2.464293        67.0568 
 183   0.0000       2.484175        67.5978 
 184   0.0000       2.539955        69.1157 
 185   0.0000       2.555422        69.5366 
 186   0.0000       2.565273        69.8046 
 187   0.0000       2.569748        69.9264 
 188   0.0000       2.579941        70.2038 
 189   0.0000       2.585625        70.3584 
 190   0.0000       2.593059        70.5607 
 191   0.0000       2.593488        70.5724 
 192   0.0000       2.594354        70.5960 
 193   0.0000       2.602063        70.8057 
 194   0.0000       2.609760        71.0152 
 195   0.0000       2.622751        71.3687 
 196   0.0000       2.637138        71.7602 
 197   0.0000       2.638506        71.7974 
 198   0.0000       2.668026        72.6007 
 199   0.0000       2.678156        72.8763 
 200   0.0000       2.698849        73.4394 
 201   0.0000       2.713302        73.8327 
 202   0.0000       2.714478        73.8647 
 203   0.0000       2.730914        74.3119 
 204   0.0000       2.797001        76.1103 
 205   0.0000       2.809066        76.4386 
 206   0.0000       2.817319        76.6632 
 207   0.0000       2.821314        76.7719 
 208   0.0000       2.826587        76.9154 
 209   0.0000       2.845611        77.4330 
 210   0.0000       2.852113        77.6099 
 211   0.0000       2.876075        78.2620 
 212   0.0000       2.891614        78.6848 
 213   0.0000       2.923883        79.5629 
 214   0.0000       2.932822        79.8061 
 215   0.0000       2.956060        80.4385 
 216   0.0000       3.026024        82.3423 
 217   0.0000       3.044388        82.8420 
 218   0.0000       3.048073        82.9423 
 219   0.0000       3.062055        83.3228 
 220   0.0000       3.117686        84.8365 
 221   0.0000       3.128885        85.1413 
 222   0.0000       3.133154        85.2574 
 223   0.0000       3.145007        85.5800 
 224   0.0000       3.150664        85.7339 
 225   0.0000       3.162499        86.0560 
 226   0.0000       3.191357        86.8413 
 227   0.0000       3.213670        87.4484 
 228   0.0000       3.265322        88.8539 
 229   0.0000       3.274965        89.1163 
 230   0.0000       3.291052        89.5541 
 231   0.0000       3.340732        90.9059 
 232   0.0000       3.363896        91.5363 
 233   0.0000       3.375880        91.8624 
 234   0.0000       3.383484        92.0693 
 235   0.0000       3.405912        92.6796 
 236   0.0000       3.434189        93.4490 
 237   0.0000       3.438685        93.5714 
 238   0.0000       3.446372        93.7806 
 239   0.0000       3.476656        94.6046 
 240   0.0000       3.569590        97.1335 
 241   0.0000       3.584103        97.5284 
 242   0.0000       3.589774        97.6827 
 243   0.0000       3.602950        98.0412 
 244   0.0000       3.626039        98.6695 
 245   0.0000       3.641761        99.0974 
 246   0.0000       3.654320        99.4391 
 247   0.0000       3.657360        99.5218 
 248   0.0000       3.664639        99.7199 
 249   0.0000       3.674105        99.9775 
 250   0.0000       3.675271       100.0092 
 251   0.0000       3.687126       100.3318 
 252   0.0000       3.723425       101.3195 
 253   0.0000       3.725412       101.3736 
 254   0.0000       3.731193       101.5309 
 255   0.0000       3.739837       101.7661 
 256   0.0000       3.863587       105.1335 
 257   0.0000       3.868927       105.2789 
 258   0.0000       3.877652       105.5163 
 259   0.0000       3.895490       106.0017 
 260   0.0000       3.898788       106.0914 
 261   0.0000       3.899874       106.1210 
 262   0.0000       3.900459       106.1369 
 263   0.0000       3.901401       106.1625 
 264   0.0000       3.910918       106.4215 
 265   0.0000       3.911804       106.4456 
 266   0.0000       3.916061       106.5614 
 267   0.0000       3.948098       107.4332 
 268   0.0000       4.220458       114.8445 
 269   0.0000       4.271429       116.2315 
 270   0.0000       4.279351       116.4471 
 271   0.0000       4.381490       119.2264 
 272   0.0000       4.496534       122.3569 
 273   0.0000       4.500520       122.4654 
 274   0.0000       4.504785       122.5814 
 275   0.0000       4.519093       122.9708 
 276   0.0000       4.537221       123.4641 
 277   0.0000       4.545760       123.6964 
 278   0.0000       4.546270       123.7103 
 279   0.0000       4.580265       124.6353 
 280   0.0000       4.733270       128.7988 
 281   0.0000       4.740495       128.9954 
 282   0.0000       4.747360       129.1822 
 283   0.0000       4.754429       129.3746 
 284   0.0000       4.866407       132.4217 
 285   0.0000       4.871291       132.5546 
 286   0.0000       4.888137       133.0130 
 287   0.0000       4.898406       133.2924 
 288   0.0000       5.678423       154.5177 
 289   0.0000       5.707079       155.2975 
 290   0.0000       5.719538       155.6365 
 291   0.0000       5.731824       155.9709 
 292   0.0000       5.775514       157.1597 
 293   0.0000       5.797819       157.7667 
 294   0.0000       5.810256       158.1051 
[...]
 19 H s       :     0.591456  s :     0.591456
      pz      :     0.012616  p :     0.056517
      px      :     0.019077
      py      :     0.024824
 20 C s       :     3.199396  s :     3.199396
      pz      :     0.851762  p :     2.803955
      px      :     1.030820
      py      :     0.921373
      dz2     :     0.042152  d :     0.132714
      dxz     :     0.017716
      dyz     :     0.017706
      dx2y2   :     0.020079
      dxy     :     0.035062
      f0      :     0.001874  f :     0.012117
      f+1     :     0.001162
      f-1     :     0.002808
      f+2     :     0.001529
      f-2     :     0.001944
      f+3     :     0.001285
      f-3     :     0.001516
 21 H s       :     0.858750  s :     0.858750
      pz      :     0.004317  p :     0.023034
      px      :     0.009039
      py      :     0.009678
 22 H s       :     0.882398  s :     0.882398
      pz      :     0.004561  p :     0.022280
      px      :     0.012061
      py      :     0.005658
 23 H s       :     0.915023  s :     0.915023
      pz      :     0.012202  p :     0.022663
      px      :     0.004851
      py      :     0.005610


                     *******************************
                     * LOEWDIN POPULATION ANALYSIS *
                     *******************************

----------------------
LOEWDIN ATOMIC CHARGES
----------------------
   0 O :   -0.074116
   1 H :    0.204075
   2 C :   -0.382407
   3 H :    0.114851
   4 H :    0.103284
   5 H :    0.106752
   6 O :   -0.085203
   7 H :    0.169535
   8 C :   -0.393423
   9 H :    0.110997
  10 H :    0.101864
  11 H :    0.097186
  12 O :   -0.086948
  13 H :    0.165436
  14 C :   -0.393274
  15 H :    0.111916
  16 H :    0.100179
  17 H :    0.096392
  18 O :   -0.108001
  19 H :    0.163715
  20 C :   -0.405438
  21 H :    0.105741
  22 H :    0.090795
  23 H :    0.086091

-------------------------------
LOEWDIN REDUCED ORBITAL CHARGES
-------------------------------
  0 O s       :     3.384718  s :     3.384718
      pz      :     1.439559  p :     4.581645
      px      :     1.608527
      py      :     1.533558
      dz2     :     0.018150  d :     0.100310
      dxz     :     0.019145
      dyz     :     0.025354
      dx2y2   :     0.016706
      dxy     :     0.020955
      f0      :     0.000692  f :     0.007444
      f+1     :     0.000900
      f-1     :     0.001432
      f+2     :     0.000952
      f-2     :     0.001588
      f+3     :     0.000915
      f-3     :     0.000965
  1 H s       :     0.646762  s :     0.646762
      pz      :     0.057589  p :     0.149163
      px      :     0.047415
      py      :     0.044159
  2 C s       :     2.867205  s :     2.867205
      pz      :     1.014645  p :     3.018848
      px      :     1.047181
      py      :     0.957023
      dz2     :     0.078126  d :     0.433514
      dxz     :     0.068187
      dyz     :     0.098308
      dx2y2   :     0.063665
      dxy     :     0.125229
      f0      :     0.006737  f :     0.062840
      f+1     :     0.004523
      f-1     :     0.012881
      f+2     :     0.011310
      f-2     :     0.009728
      f+3     :     0.008272
      f-3     :     0.009388
  3 H s       :     0.820548  s :     0.820548
      pz      :     0.031559  p :     0.064601
      px      :     0.016592
      py      :     0.016450
  4 H s       :     0.831246  s :     0.831246
      pz      :     0.018910  p :     0.065470
      px      :     0.029561
      py      :     0.016999
  5 H s       :     0.828888  s :     0.828888
      pz      :     0.014753  p :     0.064360
      px      :     0.024635
      py      :     0.024973
  6 O s       :     3.374352  s :     3.374352
      pz      :     1.630334  p :     4.604867
      px      :     1.608364
      py      :     1.366169
      dz2     :     0.015373  d :     0.098652
      dxz     :     0.011799
      dyz     :     0.024407
      dx2y2   :     0.019920
      dxy     :     0.027153
      f0      :     0.000842  f :     0.007333
      f+1     :     0.000429
      f-1     :     0.001176
      f+2     :     0.001178
      f-2     :     0.001266
      f+3     :     0.001143
      f-3     :     0.001298
  7 H s       :     0.645206  s :     0.645206
      pz      :     0.054068  p :     0.185259
      px      :     0.083087
      py      :     0.048104
  8 C s       :     2.865130  s :     2.865130
      pz      :     1.063856  p :     3.022228
      px      :     1.100459
      py      :     0.857913
      dz2     :     0.104877  d :     0.442417
      dxz     :     0.022415
      dyz     :     0.102144
      dx2y2   :     0.073338
      dxy     :     0.139643
      f0      :     0.007329  f :     0.063648
      f+1     :     0.001169
      f-1     :     0.010920
      f+2     :     0.013210
      f-2     :     0.008883
      f+3     :     0.011323
      f-3     :     0.010815
  9 H s       :     0.824587  s :     0.824587
      pz      :     0.015872  p :     0.064416
      px      :     0.032491
      py      :     0.016054
 10 H s       :     0.833001  s :     0.833001
      pz      :     0.040940  p :     0.065135
      px      :     0.014120
      py      :     0.010075
 11 H s       :     0.834776  s :     0.834776
      pz      :     0.017712  p :     0.068037
      px      :     0.032572
      py      :     0.017753
 12 O s       :     3.374718  s :     3.374718
      pz      :     1.328215  p :     4.606557
      px      :     1.524808
      py      :     1.753533
      dz2     :     0.028984  d :     0.098355
      dxz     :     0.024912
      dyz     :     0.010079
      dx2y2   :     0.017710
      dxy     :     0.016669
      f0      :     0.001060  f :     0.007319
      f+1     :     0.002020
      f-1     :     0.000413
      f+2     :     0.001198
      f-2     :     0.000862
      f+3     :     0.000848
      f-3     :     0.000917
 13 H s       :     0.648100  s :     0.648100
      pz      :     0.105413  p :     0.186464
      px      :     0.038905
      py      :     0.042147
 14 C s       :     2.863964  s :     2.863964
      pz      :     1.010094  p :     3.021723
      px      :     0.919679
      py      :     1.091950
      dz2     :     0.119591  d :     0.444110
      dxz     :     0.081839
      dyz     :     0.030893
      dx2y2   :     0.063378
      dxy     :     0.148408
      f0      :     0.005662  f :     0.063477
      f+1     :     0.013488
      f-1     :     0.003296
      f+2     :     0.012275
      f-2     :     0.012029
      f+3     :     0.009525
      f-3     :     0.007202
 15 H s       :     0.823924  s :     0.823924
      pz      :     0.036847  p :     0.064160
      px      :     0.013597
      py      :     0.013716
 16 H s       :     0.835042  s :     0.835042
      pz      :     0.013157  p :     0.064780
      px      :     0.018653
      py      :     0.032970
 17 H s       :     0.838817  s :     0.838817
      pz      :     0.013347  p :     0.064791
      px      :     0.020558
      py      :     0.030887
 18 O s       :     3.381458  s :     3.381458
      pz      :     1.610432  p :     4.622374
      px      :     1.640228
      py      :     1.371714
      dz2     :     0.021837  d :     0.096881
      dxz     :     0.014701
      dyz     :     0.021518
      dx2y2   :     0.013380
      dxy     :     0.025447
      f0      :     0.000940  f :     0.007287
      f+1     :     0.000861
      f-1     :     0.001294
      f+2     :     0.001099
      f-2     :     0.001225
      f+3     :     0.001077
      f-3     :     0.000792
 19 H s       :     0.652258  s :     0.652258
      pz      :     0.036709  p :     0.184027
      px      :     0.066747
      py      :     0.080571
 20 C s       :     2.864909  s :     2.864909
      pz      :     0.965077  p :     3.021259
      px      :     1.077780
      py      :     0.978402
      dz2     :     0.153755  d :     0.455587
      dxz     :     0.048277
      dyz     :     0.085139
      dx2y2   :     0.053579
      dxy     :     0.114836
      f0      :     0.007376  f :     0.063683
      f+1     :     0.006683
      f-1     :     0.015750
      f+2     :     0.010463
      f-2     :     0.011820
      f+3     :     0.005796
      f-3     :     0.005794
 21 H s       :     0.830661  s :     0.830661
      pz      :     0.011795  p :     0.063598
      px      :     0.025672
      py      :     0.026132
 22 H s       :     0.844563  s :     0.844563
      pz      :     0.012786  p :     0.064642
      px      :     0.035371
      py      :     0.016486
 23 H s       :     0.847619  s :     0.847619
      pz      :     0.036078  p :     0.066290
      px      :     0.013657
      py      :     0.016554


                      *****************************
                      * MAYER POPULATION ANALYSIS *
                      *****************************

  NA   - Mulliken gross atomic population
  ZA   - Total nuclear charge
  QA   - Mulliken gross atomic charge
  VA   - Mayer's total valence
  BVA  - Mayer's bonded valence
  FA   - Mayer's free valence

  ATOM       NA         ZA         QA         VA         BVA        FA
  0 O      8.5143     8.0000    -0.5143     2.1565     1.7568     0.3997
  1 H      0.6506     1.0000     0.3494     0.8889     0.8379     0.0510
  2 C      6.1990     6.0000    -0.1990     3.9693     3.6925     0.2768
  3 H      0.8616     1.0000     0.1384     0.9687     0.9228     0.0459
  4 H      0.8641     1.0000     0.1359     0.9618     0.9148     0.0471
  5 H      0.8678     1.0000     0.1322     0.9691     0.9219     0.0472
  6 O      8.5508     8.0000    -0.5508     2.1044     1.7006     0.4038
  7 H      0.6343     1.0000     0.3657     0.9059     0.8584     0.0476
  8 C      6.1622     6.0000    -0.1622     3.9844     3.7040     0.2804
  9 H      0.8713     1.0000     0.1287     0.9668     0.9198     0.0469
 10 H      0.8781     1.0000     0.1219     0.9702     0.9228     0.0474
 11 H      0.8976     1.0000     0.1024     0.9591     0.9090     0.0501
 12 O      8.5474     8.0000    -0.5474     2.1030     1.6995     0.4034
 13 H      0.6467     1.0000     0.3533     0.9280     0.8793     0.0487
 14 C      6.1807     6.0000    -0.1807     4.0064     3.7275     0.2789
 15 H      0.8646     1.0000     0.1354     0.9674     0.9210     0.0464
 16 H      0.8842     1.0000     0.1158     0.9702     0.9224     0.0479
 17 H      0.8899     1.0000     0.1101     0.9624     0.9138     0.0486
 18 O      8.5146     8.0000    -0.5146     2.1231     1.7233     0.3998
 19 H      0.6480     1.0000     0.3520     0.9310     0.8823     0.0487
 20 C      6.1482     6.0000    -0.1482     4.0827     3.8012     0.2815
 21 H      0.8818     1.0000     0.1182     0.9643     0.9172     0.0471
 22 H      0.9047     1.0000     0.0953     0.9594     0.9099     0.0495
 23 H      0.9377     1.0000     0.0623     0.9445     0.8921     0.0524

  Mayer bond orders larger than 0.100000
B(  0-O ,  1-H ) :   0.8254 B(  0-O ,  2-C ) :   0.8681 B(  2-C ,  3-H ) :   0.9400 
B(  2-C ,  4-H ) :   0.9386 B(  2-C ,  5-H ) :   0.9346 B(  6-O ,  7-H ) :   0.7634 
B(  6-O ,  8-C ) :   0.8756 B(  6-O , 13-H ) :   0.1040 B(  8-C ,  9-H ) :   0.9428 
B(  8-C , 10-H ) :   0.9349 B(  8-C , 11-H ) :   0.9421 B( 12-O , 13-H ) :   0.7658 
B( 12-O , 14-C ) :   0.8896 B( 14-C , 15-H ) :   0.9434 B( 14-C , 16-H ) :   0.9394 
B( 14-C , 17-H ) :   0.9373 B( 18-O , 19-H ) :   0.7928 B( 18-O , 20-C ) :   0.9603 
B( 20-C , 21-H ) :   0.9394 B( 20-C , 22-H ) :   0.9427 B( 20-C , 23-H ) :   0.9361 



----------------------------------
MP2 DERIVATIVE INTEGRAL GENERATION
----------------------------------


Input Wavefunction Amplitudes       ... 16meoh.pires.deturi.4meoh.dset-orca.engrad-mp2.def2tzvp-1800.to.1819_job20.mp2tsaa.tmp
Input Correlated Electron Density   ... 16meoh.pires.deturi.4meoh.dset-orca.engrad-mp2.def2tzvp-1800.to.1819_job20.pmp2re
Input Energy Weighted Density       ... 16meoh.pires.deturi.4meoh.dset-orca.engrad-mp2.def2tzvp-1800.to.1819_job20.wmp2.tmp
Input SCF Electron Density          ... 16meoh.pires.deturi.4meoh.dset-orca.engrad-mp2.def2tzvp-1800.to.1819_job20.scfp

One-Electron Terms    ...
                        ... One-Electron Terms done
Prescreening matrices              ... done

Batch handling in the gradient evaluation:
Memory available                      ... 8000.0 MB
Memory per occupied orbital in Q2     ...   25.3 MB
Memory per occupied orbital in Q3     ...    0.1 MB
Total memory requirement per |i>      ...   25.4 MB
Max. Number of orbitals possible      ...    314
Number of orbitals treated per batch  ...     28
Number of batches to be done          ...      1
Batch   0: i=    8 ...    35

---------------------------------------
MP2 TOTAL ENERGY:     -462.058492945 Eh
---------------------------------------

The final MP2 gradient
  0:   0.01842366  -0.01151056  -0.02647813
  1:  -0.00917984   0.01733069   0.01465670
  2:  -0.00518382  -0.00702835   0.01094229
  3:  -0.00015981  -0.00570555  -0.00138495
  4:   0.00130018   0.00052623   0.00297664
  5:  -0.00496534   0.00530601  -0.00013997
  6:   0.01168549  -0.01396818   0.00751463
  7:  -0.00764649   0.00212941  -0.00888997
  8:  -0.00133181   0.01068504  -0.00423345
  9:   0.00397742   0.00377329   0.00368277
 10:  -0.00094576   0.00022532  -0.00218714
 11:  -0.00931713  -0.00489290   0.00782418
 12:  -0.00435379  -0.00000842   0.01663366
 13:   0.00682871  -0.00110076  -0.00477200
 14:   0.00206490  -0.00013771  -0.00826676
 15:  -0.00680652  -0.00002475   0.00085924
 16:   0.00003729   0.00219661  -0.00148594
 17:  -0.00018922  -0.00203361  -0.00194466
 18:  -0.01053707  -0.01086792   0.00372749
 19:   0.01119262   0.00440010  -0.00457049
 20:   0.00690161  -0.00071262  -0.00339022
 21:  -0.00464503   0.00136312   0.00471475
 22:   0.00012678   0.00225113   0.00312833
 23:   0.00272297   0.00780437  -0.00891700

-----------------------------------
NORM OF THE MP2 GRADIENT:  0.064261
-----------------------------------

-------------------------   --------------------
FINAL SINGLE POINT ENERGY      -462.058492945357
-------------------------   --------------------


                            ***************************************
                            *     ORCA property calculations      *
                            ***************************************

                                    ---------------------
                                    Active property flags
                                    ---------------------
   (+) Dipole Moment


------------------------------------------------------------------------------
                       ORCA ELECTRIC PROPERTIES CALCULATION
------------------------------------------------------------------------------

Dipole Moment Calculation                       ... on
Quadrupole Moment Calculation                   ... off
Polarizability Calculation                      ... off
GBWName                                         ... 16meoh.pires.deturi.4meoh.dset-orca.engrad-mp2.def2tzvp-1800.to.1819_job20.gbw
Electron density file                           ... 16meoh.pires.deturi.4meoh.dset-orca.engrad-mp2.def2tzvp-1800.to.1819_job20.scfp
The origin for moment calculation is the CENTER OF MASS  = ( 7.992031, -3.995820  0.146112)

-------------
DIPOLE MOMENT
-------------
                                X             Y             Z
Electronic contribution:     -2.55744       1.82734       1.46791
Nuclear contribution   :      3.19161      -0.57471      -3.06868
                        -----------------------------------------
Total Dipole Moment    :      0.63418       1.25263      -1.60077
                        -----------------------------------------
Magnitude (a.u.)       :      2.12926
Magnitude (Debye)      :      5.41214



--------------------
Rotational spectrum 
--------------------
 
Rotational constants in cm-1:     0.056785     0.020408     0.018442 
Rotational constants in MHz :  1702.371145   611.826412   552.882162 

 Dipole components along the rotational axes: 
x,y,z [a.u.] :    -2.023010     0.233356    -0.621861 
x,y,z [Debye]:    -5.142083     0.593144    -1.580645 

 

                         *** MP2 UNRELAXED DENSITY ***

------------------------------------------------------------------------------
                       ORCA ELECTRIC PROPERTIES CALCULATION
------------------------------------------------------------------------------

Dipole Moment Calculation                       ... on
Quadrupole Moment Calculation                   ... off
Polarizability Calculation                      ... off
GBWName                                         ... 16meoh.pires.deturi.4meoh.dset-orca.engrad-mp2.def2tzvp-1800.to.1819_job20.gbw
Electron density file                           ... 16meoh.pires.deturi.4meoh.dset-orca.engrad-mp2.def2tzvp-1800.to.1819_job20.pmp2ur
The origin for moment calculation is the CENTER OF MASS  = ( 7.992031, -3.995820  0.146112)

-------------
DIPOLE MOMENT
-------------
                                X             Y             Z
Electronic contribution:     -2.57711       1.82823       1.48572
Nuclear contribution   :      3.19161      -0.57471      -3.06868
                        -----------------------------------------
Total Dipole Moment    :      0.61450       1.25352      -1.58296
                        -----------------------------------------
Magnitude (a.u.)       :      2.11061
Magnitude (Debye)      :      5.36475



--------------------
Rotational spectrum 
--------------------
 
Rotational constants in cm-1:     0.056785     0.020408     0.018442 
Rotational constants in MHz :  1702.371145   611.826412   552.882162 

 Dipole components along the rotational axes: 
x,y,z [a.u.] :    -2.010284     0.234793    -0.598601 
x,y,z [Debye]:    -5.109735     0.596795    -1.521522 

 

                           *** MP2 RELAXED DENSITY ***

------------------------------------------------------------------------------
                       ORCA ELECTRIC PROPERTIES CALCULATION
------------------------------------------------------------------------------

Dipole Moment Calculation                       ... on
Quadrupole Moment Calculation                   ... off
Polarizability Calculation                      ... off
GBWName                                         ... 16meoh.pires.deturi.4meoh.dset-orca.engrad-mp2.def2tzvp-1800.to.1819_job20.gbw
Electron density file                           ... 16meoh.pires.deturi.4meoh.dset-orca.engrad-mp2.def2tzvp-1800.to.1819_job20.pmp2re
The origin for moment calculation is the CENTER OF MASS  = ( 7.992031, -3.995820  0.146112)

-------------
DIPOLE MOMENT
-------------
                                X             Y             Z
Electronic contribution:     -2.60159       1.84561       1.49055
Nuclear contribution   :      3.19161      -0.57471      -3.06868
                        -----------------------------------------
Total Dipole Moment    :      0.59002       1.27089      -1.57813
                        -----------------------------------------
Magnitude (a.u.)       :      2.11040
Magnitude (Debye)      :      5.36421



--------------------
Rotational spectrum 
--------------------
 
Rotational constants in cm-1:     0.056785     0.020408     0.018442 
Rotational constants in MHz :  1702.371145   611.826412   552.882162 

 Dipole components along the rotational axes: 
x,y,z [a.u.] :    -2.018193     0.237686    -0.569382 
x,y,z [Debye]:    -5.129838     0.604149    -1.447253 

 

Timings for individual modules:

Sum of individual times         ...      177.475 sec (=   2.958 min)
GTO integral calculation        ...        1.019 sec (=   0.017 min)   0.6 %
SCF iterations                  ...       27.111 sec (=   0.452 min)  15.3 %
MP2 module                      ...      149.346 sec (=   2.489 min)  84.2 %



                             ****ORCA TERMINATED NORMALLY****
TOTAL RUN TIME: 0 days 0 hours 40 minutes 26 seconds 202 msec
