
                                 *****************
                                 * O   R   C   A *
                                 *****************

           --- An Ab Initio, DFT and Semiempirical electronic structure package ---

                  #######################################################
                  #                        -***-                        #
                  #          Department of theory and spectroscopy      #
                  #               Directorship: Frank Neese             #
                  #        Max Planck Institute fuer Kohlenforschung    #
                  #                Kaiser Wilhelm Platz 1               #
                  #                 D-45470 Muelheim/Ruhr               #
                  #                      Germany                        #
                  #                                                     #
                  #                  All rights reserved                #
                  #                        -***-                        #
                  #######################################################


                         Program Version 4.2.0 -  RELEASE  -


 With contributions from (in alphabetic order):
   Daniel Aravena         : Magnetic Suceptibility
   Michael Atanasov       : Ab Initio Ligand Field Theory (pilot matlab implementation)
   Alexander A. Auer      : GIAO ZORA, VPT2
   Ute Becker             : Parallelization
   Giovanni Bistoni       : ED, misc. LED, open-shell LED, HFLED
   Martin Brehm           : Molecular dynamics
   Dmytro Bykov           : SCF Hessian
   Vijay G. Chilkuri      : MRCI spin determinant printing, contributions to CSF-ICE
   Dipayan Datta          : RHF DLPNO-CCSD density
   Achintya Kumar Dutta   : EOM-CC, STEOM-CC
   Dmitry Ganyushin       : Spin-Orbit,Spin-Spin,Magnetic field MRCI
   Miquel Garcia          : C-PCM Hessian, Gaussian charge scheme
   Yang Guo               : DLPNO-NEVPT2, CIM, IAO-localization
   Andreas Hansen         : Spin unrestricted coupled pair/coupled cluster methods
   Benjamin Helmich-Paris : CASSCF linear response (MC-RPA)
   Lee Huntington         : MR-EOM, pCC
   Robert Izsak           : Overlap fitted RIJCOSX, COSX-SCS-MP3, EOM
   Christian Kollmar      : KDIIS, OOCD, Brueckner-CCSD(T), CCSD density
   Simone Kossmann        : Meta GGA functionals, TD-DFT gradient, OOMP2, MP2 Hessian
   Martin Krupicka        : AUTO-CI
   Lucas Lang             : DCDCAS
   Dagmar Lenk            : GEPOL surface, SMD
   Dimitrios Liakos       : Extrapolation schemes; Compound Job, initial MDCI parallelization
   Dimitrios Manganas     : Further ROCIS development; embedding schemes
   Dimitrios Pantazis     : SARC Basis sets
   Taras Petrenko         : DFT Hessian,TD-DFT gradient, ASA, ECA, R-Raman, ABS, FL, XAS/XES, NRVS
   Peter Pinski           : DLPNO-MP2, DLPNO-MP2 Gradient
   Christoph Reimann      : Effective Core Potentials
   Marius Retegan         : Local ZFS, SOC
   Christoph Riplinger    : Optimizer, TS searches, QM/MM, DLPNO-CCSD(T), (RO)-DLPNO pert. Triples
   Tobias Risthaus        : Range-separated hybrids, TD-DFT gradient, RPA, STAB
   Michael Roemelt        : Original ROCIS implementation
   Masaaki Saitow         : Open-shell DLPNO-CCSD energy and density
   Barbara Sandhoefer     : DKH picture change effects
   Avijit Sen             : IP-ROCIS
   Kantharuban Sivalingam : CASSCF convergence, NEVPT2, FIC-MRCI
   Bernardo de Souza      : ESD, SOC TD-DFT
   Georgi Stoychev        : AutoAux, RI-MP2 NMR
   Willem Van den Heuvel  : Paramagnetic NMR
   Boris Wezisla          : Elementary symmetry handling
   Frank Wennmohs         : Technical directorship


 We gratefully acknowledge several colleagues who have allowed us to
 interface, adapt or use parts of their codes:
   Stefan Grimme, W. Hujo, H. Kruse,             : VdW corrections, initial TS optimization,
                  C. Bannwarth                     DFT functionals, gCP, sTDA/sTD-DF
   Ed Valeev, F. Pavosevic, A. Kumar             : LibInt (2-el integral package), F12 methods
   Garnet Chan, S. Sharma, J. Yang, R. Olivares  : DMRG
   Ulf Ekstrom                                   : XCFun DFT Library
   Mihaly Kallay                                 : mrcc  (arbitrary order and MRCC methods)
   Andreas Klamt, Michael Diedenhofen            : otool_cosmo (COSMO solvation model)
   Jiri Pittner, Ondrej Demel                    : Mk-CCSD
   Frank Weinhold                                : gennbo (NPA and NBO analysis)
   Christopher J. Cramer and Donald G. Truhlar   : smd solvation model
   Lars Goerigk                                  : TD-DFT with DH, B97 family of functionals
   V. Asgeirsson, H. Jonsson                     : NEB implementation
   FAccTs GmbH                                   : IRC, NEB, NEB-TS, Multilevel, MM, QM/MM, CI optimization
   S Lehtola, MJT Oliveira, MAL Marques          : LibXC Library


 Your calculation uses the libint2 library for the computation of 2-el integrals
 For citations please refer to: http://libint.valeyev.net

 Your ORCA version has been built with support for libXC version: 4.2.3
 For citations please refer to: https://tddft.org/programs/libxc/

 This ORCA versions uses:
   CBLAS   interface :  Fast vector & matrix operations
   LAPACKE interface :  Fast linear algebra routines
   SCALAPACK package :  Parallel linear algebra routines


----- Orbital basis set information -----
Your calculation utilizes the basis: def2-TZVP
   F. Weigend and R. Ahlrichs, Phys. Chem. Chem. Phys. 7, 3297 (2005).

================================================================================
                                        WARNINGS
                       Please study these warnings very carefully!
================================================================================


WARNING: The frozen-core approximation for MP2-gradient calculations is turned on by default.

INFO   : the flag for use of LIBINT has been found!

----- Orbital basis set information -----
Your calculation utilizes the basis: def2-TZVP
   F. Weigend and R. Ahlrichs, Phys. Chem. Chem. Phys. 7, 3297 (2005).

================================================================================
                                        WARNINGS
                       Please study these warnings very carefully!
================================================================================


WARNING: The frozen-core approximation for MP2-gradient calculations is turned on by default.

INFO   : the flag for use of LIBINT has been found!

----- Orbital basis set information -----
Your calculation utilizes the basis: def2-TZVP
   F. Weigend and R. Ahlrichs, Phys. Chem. Chem. Phys. 7, 3297 (2005).

================================================================================
                                        WARNINGS
                       Please study these warnings very carefully!
================================================================================


WARNING: The frozen-core approximation for MP2-gradient calculations is turned on by default.

INFO   : the flag for use of LIBINT has been found!

----- Orbital basis set information -----
Your calculation utilizes the basis: def2-TZVP
   F. Weigend and R. Ahlrichs, Phys. Chem. Chem. Phys. 7, 3297 (2005).

================================================================================
                                        WARNINGS
                       Please study these warnings very carefully!
================================================================================


WARNING: The frozen-core approximation for MP2-gradient calculations is turned on by default.

INFO   : the flag for use of LIBINT has been found!

----- Orbital basis set information -----
Your calculation utilizes the basis: def2-TZVP
   F. Weigend and R. Ahlrichs, Phys. Chem. Chem. Phys. 7, 3297 (2005).

================================================================================
                                        WARNINGS
                       Please study these warnings very carefully!
================================================================================


WARNING: The frozen-core approximation for MP2-gradient calculations is turned on by default.

INFO   : the flag for use of LIBINT has been found!

----- Orbital basis set information -----
Your calculation utilizes the basis: def2-TZVP
   F. Weigend and R. Ahlrichs, Phys. Chem. Chem. Phys. 7, 3297 (2005).

================================================================================
                                        WARNINGS
                       Please study these warnings very carefully!
================================================================================


WARNING: The frozen-core approximation for MP2-gradient calculations is turned on by default.

INFO   : the flag for use of LIBINT has been found!

----- Orbital basis set information -----
Your calculation utilizes the basis: def2-TZVP
   F. Weigend and R. Ahlrichs, Phys. Chem. Chem. Phys. 7, 3297 (2005).

================================================================================
                                        WARNINGS
                       Please study these warnings very carefully!
================================================================================


WARNING: The frozen-core approximation for MP2-gradient calculations is turned on by default.

INFO   : the flag for use of LIBINT has been found!

----- Orbital basis set information -----
Your calculation utilizes the basis: def2-TZVP
   F. Weigend and R. Ahlrichs, Phys. Chem. Chem. Phys. 7, 3297 (2005).

================================================================================
                                        WARNINGS
                       Please study these warnings very carefully!
================================================================================


WARNING: The frozen-core approximation for MP2-gradient calculations is turned on by default.

INFO   : the flag for use of LIBINT has been found!

----- Orbital basis set information -----
Your calculation utilizes the basis: def2-TZVP
   F. Weigend and R. Ahlrichs, Phys. Chem. Chem. Phys. 7, 3297 (2005).

================================================================================
                                        WARNINGS
                       Please study these warnings very carefully!
================================================================================


WARNING: The frozen-core approximation for MP2-gradient calculations is turned on by default.

INFO   : the flag for use of LIBINT has been found!

----- Orbital basis set information -----
Your calculation utilizes the basis: def2-TZVP
   F. Weigend and R. Ahlrichs, Phys. Chem. Chem. Phys. 7, 3297 (2005).

================================================================================
                                        WARNINGS
                       Please study these warnings very carefully!
================================================================================


WARNING: The frozen-core approximation for MP2-gradient calculations is turned on by default.

INFO   : the flag for use of LIBINT has been found!

----- Orbital basis set information -----
Your calculation utilizes the basis: def2-TZVP
   F. Weigend and R. Ahlrichs, Phys. Chem. Chem. Phys. 7, 3297 (2005).

================================================================================
                                        WARNINGS
                       Please study these warnings very carefully!
================================================================================


WARNING: The frozen-core approximation for MP2-gradient calculations is turned on by default.

INFO   : the flag for use of LIBINT has been found!

----- Orbital basis set information -----
Your calculation utilizes the basis: def2-TZVP
   F. Weigend and R. Ahlrichs, Phys. Chem. Chem. Phys. 7, 3297 (2005).

================================================================================
                                        WARNINGS
                       Please study these warnings very carefully!
================================================================================


WARNING: The frozen-core approximation for MP2-gradient calculations is turned on by default.

INFO   : the flag for use of LIBINT has been found!

----- Orbital basis set information -----
Your calculation utilizes the basis: def2-TZVP
   F. Weigend and R. Ahlrichs, Phys. Chem. Chem. Phys. 7, 3297 (2005).

================================================================================
                                        WARNINGS
                       Please study these warnings very carefully!
================================================================================


WARNING: The frozen-core approximation for MP2-gradient calculations is turned on by default.

INFO   : the flag for use of LIBINT has been found!

----- Orbital basis set information -----
Your calculation utilizes the basis: def2-TZVP
   F. Weigend and R. Ahlrichs, Phys. Chem. Chem. Phys. 7, 3297 (2005).

================================================================================
                                        WARNINGS
                       Please study these warnings very carefully!
================================================================================


WARNING: The frozen-core approximation for MP2-gradient calculations is turned on by default.

INFO   : the flag for use of LIBINT has been found!

----- Orbital basis set information -----
Your calculation utilizes the basis: def2-TZVP
   F. Weigend and R. Ahlrichs, Phys. Chem. Chem. Phys. 7, 3297 (2005).

================================================================================
                                        WARNINGS
                       Please study these warnings very carefully!
================================================================================


WARNING: The frozen-core approximation for MP2-gradient calculations is turned on by default.

INFO   : the flag for use of LIBINT has been found!

----- Orbital basis set information -----
Your calculation utilizes the basis: def2-TZVP
   F. Weigend and R. Ahlrichs, Phys. Chem. Chem. Phys. 7, 3297 (2005).

================================================================================
                                        WARNINGS
                       Please study these warnings very carefully!
================================================================================


WARNING: The frozen-core approximation for MP2-gradient calculations is turned on by default.

INFO   : the flag for use of LIBINT has been found!

================================================================================
                                       INPUT FILE
================================================================================
NAME = 16meoh.pires.deturi.1meoh.dset-orca.engrad-mp2.def2tzvp.inp
|  1> # 16meoh.pires.deturi.1meoh.dset-orca.engrad-mp2.def2tzvp
|  2> ! MP2 def2-TZVP EnGrad TightSCF FrozenCore
|  3> 
|  4> %pal
|  5>     nprocs 6
|  6> end
|  7> 
|  8> %maxcore 8000
|  9> 
| 10> %scf
| 11>     ConvForced true
| 12> end
| 13> 
| 14> *xyz 0 1
| 15> O  -3.018792090   0.717314504   1.677125339
| 16> H  -2.681874070   0.523685618   0.765530370
| 17> C  -3.327813915  -0.554209079   2.217429913
| 18> H  -3.775050691  -0.349775379   3.193588070
| 19> H  -2.417417696  -1.154040380   2.348057089
| 20> H  -4.041081915  -1.100433103   1.587926348
| 21> *
| 22> 
| 23> 
| 24> $new_job
| 25> 
| 26> # 16meoh.pires.deturi.1meoh.dset-orca.engrad-mp2.def2tzvp
| 27> ! MP2 def2-TZVP EnGrad TightSCF FrozenCore
| 28> 
| 29> %pal
| 30>     nprocs 6
| 31> end
| 32> 
| 33> %maxcore 8000
| 34> 
| 35> %scf
| 36>     ConvForced true
| 37> end
| 38> 
| 39> *xyz 0 1
| 40> O  -5.309877363   2.173012954   1.188582879
| 41> H  -4.534321841   1.587487930   1.379525357
| 42> C  -5.524215264   2.030738249  -0.202328645
| 43> H  -6.399408851   2.646836053  -0.422718832
| 44> H  -5.729319079   0.987319329  -0.473929368
| 45> H  -4.658344224   2.394044855  -0.781355791
| 46> *
| 47> 
| 48> 
| 49> $new_job
| 50> 
| 51> # 16meoh.pires.deturi.1meoh.dset-orca.engrad-mp2.def2tzvp
| 52> ! MP2 def2-TZVP EnGrad TightSCF FrozenCore
| 53> 
| 54> %pal
| 55>     nprocs 6
| 56> end
| 57> 
| 58> %maxcore 8000
| 59> 
| 60> %scf
| 61>     ConvForced true
| 62> end
| 63> 
| 64> *xyz 0 1
| 65> O  -4.064103038   4.621735442   1.626909031
| 66> H  -4.590229647   3.796181513   1.484292958
| 67> C  -3.292997649   4.338098334   2.780335252
| 68> H  -2.675094201   5.226299611   2.937834201
| 69> H  -2.649781641   3.461868441   2.626910731
| 70> H  -3.931524729   4.175879475   3.655937532
| 71> *
| 72> 
| 73> 
| 74> $new_job
| 75> 
| 76> # 16meoh.pires.deturi.1meoh.dset-orca.engrad-mp2.def2tzvp
| 77> ! MP2 def2-TZVP EnGrad TightSCF FrozenCore
| 78> 
| 79> %pal
| 80>     nprocs 6
| 81> end
| 82> 
| 83> %maxcore 8000
| 84> 
| 85> %scf
| 86>     ConvForced true
| 87> end
| 88> 
| 89> *xyz 0 1
| 90> O   1.929195936   3.618048545  -0.931010398
| 91> H   1.367676373   4.258177212  -0.420185781
| 92> C   1.304856342   3.528515847  -2.197292674
| 93> H   1.897470364   2.789885309  -2.755252348
| 94> H   1.326381056   4.491848269  -2.719278088
| 95> H   0.261366991   3.180732367  -2.111617621
| 96> *
| 97> 
| 98> 
| 99> $new_job
|100> 
|101> # 16meoh.pires.deturi.1meoh.dset-orca.engrad-mp2.def2tzvp
|102> ! MP2 def2-TZVP EnGrad TightSCF FrozenCore
|103> 
|104> %pal
|105>     nprocs 6
|106> end
|107> 
|108> %maxcore 8000
|109> 
|110> %scf
|111>     ConvForced true
|112> end
|113> 
|114> *xyz 0 1
|115> O  -2.216115376   4.749095837  -0.426586865
|116> H  -2.892972562   4.756806409   0.297554489
|117> C  -2.145196476   3.385580824  -0.798927473
|118> H  -1.374839519   3.330421880  -1.581028282
|119> H  -3.107474472   3.026881004  -1.197845003
|120> H  -1.847243939   2.750089261   0.046884661
|121> *
|122> 
|123> 
|124> $new_job
|125> 
|126> # 16meoh.pires.deturi.1meoh.dset-orca.engrad-mp2.def2tzvp
|127> ! MP2 def2-TZVP EnGrad TightSCF FrozenCore
|128> 
|129> %pal
|130>     nprocs 6
|131> end
|132> 
|133> %maxcore 8000
|134> 
|135> %scf
|136>     ConvForced true
|137> end
|138> 
|139> *xyz 0 1
|140> O   0.316061100   5.345871973   0.473092452
|141> H  -0.616689258   5.165468085   0.187404106
|142> C   0.578486418   6.662109384   0.026039367
|143> H   1.585323102   6.890649250   0.385706472
|144> H  -0.134464865   7.379534886   0.447371285
|145> H   0.556314281   6.722601577  -1.069193719
|146> *
|147> 
|148> 
|149> $new_job
|150> 
|151> # 16meoh.pires.deturi.1meoh.dset-orca.engrad-mp2.def2tzvp
|152> ! MP2 def2-TZVP EnGrad TightSCF FrozenCore
|153> 
|154> %pal
|155>     nprocs 6
|156> end
|157> 
|158> %maxcore 8000
|159> 
|160> %scf
|161>     ConvForced true
|162> end
|163> 
|164> *xyz 0 1
|165> O  -2.341640820   0.182306478  -0.945271097
|166> H  -2.775583541  -0.703490443  -1.031145457
|167> C  -0.954493272  -0.064104109  -1.084615627
|168> H  -0.497581745   0.930773221  -1.138161685
|169> H  -0.728321106  -0.625561810  -1.998089387
|170> H  -0.559650957  -0.606324671  -0.209179354
|171> *
|172> 
|173> 
|174> $new_job
|175> 
|176> # 16meoh.pires.deturi.1meoh.dset-orca.engrad-mp2.def2tzvp
|177> ! MP2 def2-TZVP EnGrad TightSCF FrozenCore
|178> 
|179> %pal
|180>     nprocs 6
|181> end
|182> 
|183> %maxcore 8000
|184> 
|185> %scf
|186>     ConvForced true
|187> end
|188> 
|189> *xyz 0 1
|190> O   1.909663583   1.036320930   0.018789196
|191> H   1.913335293   1.992376107  -0.242726220
|192> C   2.710412036   0.956618814   1.182993504
|193> H   2.515379678  -0.047288030   1.587158098
|194> H   2.430690888   1.712684309   1.924427492
|195> H   3.774024475   1.057853627   0.936209412
|196> *
|197> 
|198> 
|199> $new_job
|200> 
|201> # 16meoh.pires.deturi.1meoh.dset-orca.engrad-mp2.def2tzvp
|202> ! MP2 def2-TZVP EnGrad TightSCF FrozenCore
|203> 
|204> %pal
|205>     nprocs 6
|206> end
|207> 
|208> %maxcore 8000
|209> 
|210> %scf
|211>     ConvForced true
|212> end
|213> 
|214> *xyz 0 1
|215> O   0.505545866  -3.169259199   1.456044168
|216> H   1.368791220  -3.519897250   1.785412817
|217> C   0.439028018  -1.851865448   1.970216360
|218> H  -0.288601056  -1.323302496   1.336181030
|219> H   1.408233020  -1.329128129   1.920126732
|220> H   0.080654853  -1.867598710   3.005290052
|221> *
|222> 
|223> 
|224> $new_job
|225> 
|226> # 16meoh.pires.deturi.1meoh.dset-orca.engrad-mp2.def2tzvp
|227> ! MP2 def2-TZVP EnGrad TightSCF FrozenCore
|228> 
|229> %pal
|230>     nprocs 6
|231> end
|232> 
|233> %maxcore 8000
|234> 
|235> %scf
|236>     ConvForced true
|237> end
|238> 
|239> *xyz 0 1
|240> O   0.126509440  -3.076363248  -1.256196668
|241> H   0.340008795  -3.093524223  -0.288451805
|242> C   1.318820081  -3.418433896  -1.929271824
|243> H   1.042211472  -3.479571685  -2.984824234
|244> H   1.717688319  -4.384686928  -1.592897088
|245> H   2.086886817  -2.645978282  -1.791305838
|246> *
|247> 
|248> 
|249> $new_job
|250> 
|251> # 16meoh.pires.deturi.1meoh.dset-orca.engrad-mp2.def2tzvp
|252> ! MP2 def2-TZVP EnGrad TightSCF FrozenCore
|253> 
|254> %pal
|255>     nprocs 6
|256> end
|257> 
|258> %maxcore 8000
|259> 
|260> %scf
|261>     ConvForced true
|262> end
|263> 
|264> *xyz 0 1
|265> O  -2.240549001  -4.340367635  -1.757085838
|266> H  -1.330244334  -3.974402199  -1.625908969
|267> C  -2.368613939  -5.344577342  -0.768563191
|268> H  -3.385879733  -5.728552846  -0.882562074
|269> H  -2.237606518  -4.939664632   0.242205144
|270> H  -1.650692371  -6.156309817  -0.932735905
|271> *
|272> 
|273> 
|274> $new_job
|275> 
|276> # 16meoh.pires.deturi.1meoh.dset-orca.engrad-mp2.def2tzvp
|277> ! MP2 def2-TZVP EnGrad TightSCF FrozenCore
|278> 
|279> %pal
|280>     nprocs 6
|281> end
|282> 
|283> %maxcore 8000
|284> 
|285> %scf
|286>     ConvForced true
|287> end
|288> 
|289> *xyz 0 1
|290> O  -3.745530256  -2.181170077  -0.940717811
|291> H  -3.256375244  -2.983228774  -1.256562685
|292> C  -4.830023615  -2.030924414  -1.835448747
|293> H  -5.367049145  -1.144924407  -1.481069017
|294> H  -5.495188050  -2.901194789  -1.805874980
|295> H  -4.486329742  -1.867261732  -2.863517219
|296> *
|297> 
|298> 
|299> $new_job
|300> 
|301> # 16meoh.pires.deturi.1meoh.dset-orca.engrad-mp2.def2tzvp
|302> ! MP2 def2-TZVP EnGrad TightSCF FrozenCore
|303> 
|304> %pal
|305>     nprocs 6
|306> end
|307> 
|308> %maxcore 8000
|309> 
|310> %scf
|311>     ConvForced true
|312> end
|313> 
|314> *xyz 0 1
|315> O   3.190012295  -0.294310707  -2.020941016
|316> H   2.714509117   0.163887168  -1.279560508
|317> C   3.773621856   0.754487110  -2.771105983
|318> H   4.169048413   0.279603731  -3.672411353
|319> H   4.589570778   1.231807210  -2.215189996
|320> H   3.027632133   1.516876814  -3.048043373
|321> *
|322> 
|323> 
|324> $new_job
|325> 
|326> # 16meoh.pires.deturi.1meoh.dset-orca.engrad-mp2.def2tzvp
|327> ! MP2 def2-TZVP EnGrad TightSCF FrozenCore
|328> 
|329> %pal
|330>     nprocs 6
|331> end
|332> 
|333> %maxcore 8000
|334> 
|335> %scf
|336>     ConvForced true
|337> end
|338> 
|339> *xyz 0 1
|340> O   5.209159061  -1.760286019  -0.887111380
|341> H   4.488190304  -1.244416518  -1.334663238
|342> C   5.098612890  -3.068562606  -1.410992649
|343> H   5.998675499  -3.590032498  -1.074395254
|344> H   5.058726259  -3.069197366  -2.505687480
|345> H   4.207235260  -3.583539786  -1.010262625
|346> *
|347> 
|348> 
|349> $new_job
|350> 
|351> # 16meoh.pires.deturi.1meoh.dset-orca.engrad-mp2.def2tzvp
|352> ! MP2 def2-TZVP EnGrad TightSCF FrozenCore
|353> 
|354> %pal
|355>     nprocs 6
|356> end
|357> 
|358> %maxcore 8000
|359> 
|360> %scf
|361>     ConvForced true
|362> end
|363> 
|364> *xyz 0 1
|365> O   4.503295638  -1.807526466   1.768213514
|366> H   4.809734628  -1.780091171   0.825623027
|367> C   5.683820585  -1.783410235   2.546417170
|368> H   5.340445492  -1.814134467   3.583904082
|369> H   6.255091750  -0.864500960   2.373477866
|370> H   6.318124312  -2.653917265   2.341240921
|371> *
|372> 
|373> 
|374> $new_job
|375> 
|376> # 16meoh.pires.deturi.1meoh.dset-orca.engrad-mp2.def2tzvp
|377> ! MP2 def2-TZVP EnGrad TightSCF FrozenCore
|378> 
|379> %pal
|380>     nprocs 6
|381> end
|382> 
|383> %maxcore 8000
|384> 
|385> %scf
|386>     ConvForced true
|387> end
|388> 
|389> *xyz 0 1
|390> O   3.008513329  -4.077296804   2.205052849
|391> H   3.600952247  -3.293343640   2.081078922
|392> C   3.413698687  -4.999152804   1.213529583
|393> H   2.677141565  -5.805820476   1.250508246
|394> H   4.410233455  -5.399632470   1.432393730
|395> H   3.419685405  -4.546257033   0.206276496
|396> *
|397> 
|398>                          ****END OF INPUT****
================================================================================


                 $$$$$$$$$$$$$$$$$$$$$$$$$$$$$$$$$$$$$$$$$$$$$$ 
                 $ THERE ARE 16 JOBS TO BE PROCESSED THIS RUN $
                 $$$$$$$$$$$$$$$$$$$$$$$$$$$$$$$$$$$$$$$$$$$$$$ 




                 $$$$$$$$$$$$$$$$  JOB NUMBER  1 $$$$$$$$$$$$$$


                     *******************************
                     * Energy+Gradient Calculation *
                     *******************************

---------------------------------
CARTESIAN COORDINATES (ANGSTROEM)
---------------------------------
  O     -3.018792    0.717315    1.677125
  H     -2.681874    0.523686    0.765530
  C     -3.327814   -0.554209    2.217430
  H     -3.775051   -0.349775    3.193588
  H     -2.417418   -1.154040    2.348057
  H     -4.041082   -1.100433    1.587926

----------------------------
CARTESIAN COORDINATES (A.U.)
----------------------------
  NO LB      ZA    FRAG     MASS         X           Y           Z
   0 O     8.0000    0    15.999   -5.704690    1.355528    3.169308
   1 H     1.0000    0     1.008   -5.068008    0.989622    1.446643
   2 C     6.0000    0    12.011   -6.288657   -1.047303    4.190335
   3 H     1.0000    0     1.008   -7.133812   -0.660980    6.035007
   4 H     1.0000    0     1.008   -4.568257   -2.180820    4.437185
   5 H     1.0000    0     1.008   -7.636538   -2.079517    3.000746

--------------------------------
INTERNAL COORDINATES (ANGSTROEM)
--------------------------------
 O      0   0   0     0.000000000000     0.00000000     0.00000000
 H      1   0   0     0.990964825410     0.00000000     0.00000000
 C      1   2   0     1.415696204394   104.46586959     0.00000000
 H      3   1   2     1.093022698291   105.19915434   184.36154181
 H      3   1   2     1.098035666242   110.79753123    66.02003143
 H      3   1   2     1.096989818807   111.72422913   303.50732112

---------------------------
INTERNAL COORDINATES (A.U.)
---------------------------
 O      0   0   0     0.000000000000     0.00000000     0.00000000
 H      1   0   0     1.872652128375     0.00000000     0.00000000
 C      1   2   0     2.675278115137   104.46586959     0.00000000
 H      3   1   2     2.065513557930   105.19915434   184.36154181
 H      3   1   2     2.074986694474   110.79753123    66.02003143
 H      3   1   2     2.073010329245   111.72422913   303.50732112

---------------------
BASIS SET INFORMATION
---------------------
There are 3 groups of distinct atoms

 Group   1 Type O   : 11s6p2d1f contracted to 5s3p2d1f pattern {62111/411/11/1}
 Group   2 Type H   : 5s1p contracted to 3s1p pattern {311/1}
 Group   3 Type C   : 11s6p2d1f contracted to 5s3p2d1f pattern {62111/411/11/1}

Atom   0O    basis set group =>   1
Atom   1H    basis set group =>   2
Atom   2C    basis set group =>   3
Atom   3H    basis set group =>   2
Atom   4H    basis set group =>   2
Atom   5H    basis set group =>   2


           ************************************************************
           *        Program running with 6 parallel MPI-processes     *
           *              working on a common directory               *
           ************************************************************
------------------------------------------------------------------------------
                           ORCA GTO INTEGRAL CALCULATION
------------------------------------------------------------------------------

                         BASIS SET STATISTICS AND STARTUP INFO

 # of primitive gaussian shells          ...   64
 # of primitive gaussian functions       ...  124
 # of contracted shells                  ...   38
 # of contracted basis functions         ...   86
 Highest angular momentum                ...    3
 Maximum contraction depth               ...    6
 Integral package used                   ... LIBINT
 Integral threshhold            Thresh   ...  2.500e-11
 Primitive cut-off              TCut     ...  2.500e-12


------------------------------ INTEGRAL EVALUATION ----------------------------


 * One electron integrals 
 Pre-screening matrix                    ... done
 Shell pair data                         ... done (   0.000 sec)



           ************************************************************
           *        Program running with 6 parallel MPI-processes     *
           *              working on a common directory               *
           ************************************************************
-------------------------------------------------------------------------------
                                 ORCA SCF
-------------------------------------------------------------------------------

------------
SCF SETTINGS
------------
Hamiltonian:
 Ab initio Hamiltonian  Method          .... Hartree-Fock(GTOs)


General Settings:
 Integral files         IntName         .... 16meoh.pires.deturi.1meoh.dset-orca.engrad-mp2.def2tzvp
 Hartree-Fock type      HFTyp           .... RHF
 Total Charge           Charge          ....    0
 Multiplicity           Mult            ....    1
 Number of Electrons    NEL             ....   18
 Basis Dimension        Dim             ....   86
 Nuclear Repulsion      ENuc            ....     40.2743037412 Eh

Convergence Acceleration:
 DIIS                   CNVDIIS         .... on
   Start iteration      DIISMaxIt       ....    12
   Startup error        DIISStart       ....  0.200000
   # of expansion vecs  DIISMaxEq       ....     5
   Bias factor          DIISBfac        ....   1.050
   Max. coefficient     DIISMaxC        ....  10.000
 Newton-Raphson         CNVNR           .... off
 SOSCF                  CNVSOSCF        .... on
   Start iteration      SOSCFMaxIt      ....   150
   Startup grad/error   SOSCFStart      ....  0.003300
 Level Shifting         CNVShift        .... on
   Level shift para.    LevelShift      ....    0.2500
   Turn off err/grad.   ShiftErr        ....    0.0010
 Zerner damping         CNVZerner       .... off
 Static damping         CNVDamp         .... on
   Fraction old density DampFac         ....    0.7000
   Max. Damping (<1)    DampMax         ....    0.9800
   Min. Damping (>=0)   DampMin         ....    0.0000
   Turn off err/grad.   DampErr         ....    0.1000
 Fernandez-Rico         CNVRico         .... off

SCF Procedure:
 Maximum # iterations   MaxIter         ....   125
 SCF integral mode      SCFMode         .... Direct
   Integral package                     .... LIBINT
 Reset frequency        DirectResetFreq ....    20
 Integral Threshold     Thresh          ....  2.500e-11 Eh
 Primitive CutOff       TCut            ....  2.500e-12 Eh

Convergence Tolerance:
 Convergence Check Mode ConvCheckMode   .... Total+1el-Energy
 Convergence forced     ConvForced      .... 1
 Energy Change          TolE            ....  1.000e-08 Eh
 1-El. energy change                    ....  1.000e-05 Eh
 Orbital Gradient       TolG            ....  1.000e-05
 Orbital Rotation angle TolX            ....  1.000e-05
 DIIS Error             TolErr          ....  5.000e-07


Diagonalization of the overlap matrix:
Smallest eigenvalue                        ... 1.665e-03
Time for diagonalization                   ...    0.002 sec
Threshold for overlap eigenvalues          ... 1.000e-08
Number of eigenvalues below threshold      ... 0
Time for construction of square roots      ...    0.001 sec
Total time needed                          ...    0.003 sec

-------------------
DFT GRID GENERATION
-------------------

General Integration Accuracy     IntAcc      ...  4.340
Radial Grid Type                 RadialGrid  ... Gauss-Chebyshev
Angular Grid (max. acc.)         AngularGrid ... Lebedev-110
Angular grid pruning method      GridPruning ... 3 (G Style)
Weight generation scheme         WeightScheme... Becke
Basis function cutoff            BFCut       ...    1.0000e-11
Integration weight cutoff        WCut        ...    1.0000e-14
Grids for H and He will be reduced by one unit

# of grid points (after initial pruning)     ...   6548 (   0.0 sec)
# of grid points (after weights+screening)   ...   6370 (   0.0 sec)
nearest neighbour list constructed           ...    0.0 sec
Grid point re-assignment to atoms done       ...    0.0 sec
Grid point division into batches done        ...    0.0 sec
Reduced shell lists constructed in    0.0 sec

Total number of grid points                  ...     6370
Total number of batches                      ...      103
Average number of points per batch           ...       61
Average number of grid points per atom       ...     1062
Average number of shells per batch           ...    32.47 (85.46%)
Average number of basis functions per batch  ...    75.32 (87.58%)
Average number of large shells per batch     ...    29.58 (91.09%)
Average number of large basis fcns per batch ...    69.47 (92.24%)
Maximum spatial batch extension              ...  16.41, 14.34, 14.73 au
Average spatial batch extension              ...   0.82,  0.66,  0.67 au

Time for grid setup =    0.013 sec

------------------------------
INITIAL GUESS: MODEL POTENTIAL
------------------------------
Loading Hartree-Fock densities                     ... done
Calculating cut-offs                               ... done
Setting up the integral package                    ... done
Initializing the effective Hamiltonian             ... done
Starting the Coulomb interaction                   ... done (   0.0 sec)
Reading the grid                                   ... done
Mapping shells                                     ... done
Starting the XC term evaluation                    ... done (   0.0 sec)
Transforming the Hamiltonian                       ... done (   0.0 sec)
Diagonalizing the Hamiltonian                      ... done (   0.0 sec)
Back transforming the eigenvectors                 ... done (   0.0 sec)
Now organizing SCF variables                       ... done
                      ------------------
                      INITIAL GUESS DONE (   0.2 sec)
                      ------------------
--------------
SCF ITERATIONS
--------------
ITER       Energy         Delta-E        Max-DP      RMS-DP      [F,P]     Damp
               ***  Starting incremental Fock matrix formation  ***
  0   -114.9678002905   0.000000000000 0.03599853  0.00133358  0.2883836 0.7000
  1   -115.0119563865  -0.044156096008 0.02475807  0.00098642  0.2176865 0.7000
                               ***Turning on DIIS***
  2   -115.0374249242  -0.025468537720 0.01478013  0.00060821  0.1627650 0.7000
  3   -115.3295344580  -0.292109533812 0.00762403  0.00033986  0.1199348 0.7000
  4   -115.2791796528   0.050354805238 0.01694083  0.00081466  0.0845524 0.0000
  5   -115.0993186108   0.179861041998 0.00219761  0.00010989  0.0062556 0.0000
                      *** Initiating the SOSCF procedure ***
                           *** Shutting down DIIS ***
                      *** Re-Reading the Fockian *** 
                      *** Removing any level shift *** 
ITER      Energy       Delta-E        Grad      Rot      Max-DP    RMS-DP
  6   -115.09094857   0.0083700384  0.000811  0.000811  0.000836  0.000055
               *** Restarting incremental Fock matrix formation ***
  7   -115.08916493   0.0017836445  0.000357  0.000363  0.000479  0.000031
  8   -115.08916735  -0.0000024236  0.000194  0.000244  0.000363  0.000021
  9   -115.08916795  -0.0000005956  0.000032  0.000029  0.000055  0.000003
 10   -115.08916796  -0.0000000177  0.000007  0.000013  0.000016  0.000001
                 **** Energy Check signals convergence ****
              ***Rediagonalizing the Fockian in SOSCF/NRSCF***

               *****************************************************
               *                     SUCCESS                       *
               *           SCF CONVERGED AFTER  11 CYCLES          *
               *****************************************************


----------------
TOTAL SCF ENERGY
----------------

Total Energy       :         -115.08916797 Eh           -3131.73547 eV

Components:
Nuclear Repulsion  :           40.27430374 Eh            1095.91952 eV
Electronic Energy  :         -155.36347171 Eh           -4227.65499 eV
One Electron Energy:         -236.83533000 Eh           -6444.61697 eV
Two Electron Energy:           81.47185830 Eh            2216.96197 eV

Virial components:
Potential Energy   :         -230.00511158 Eh           -6258.75728 eV
Kinetic Energy     :          114.91594361 Eh            3127.02180 eV
Virial Ratio       :            2.00150740


---------------
SCF CONVERGENCE
---------------

  Last Energy change         ...   -1.3090e-09  Tolerance :   1.0000e-08
  Last MAX-Density change    ...    3.5790e-06  Tolerance :   1.0000e-07
  Last RMS-Density change    ...    2.3496e-07  Tolerance :   5.0000e-09
  Last Orbital Gradient      ...    1.9918e-06  Tolerance :   1.0000e-05
  Last Orbital Rotation      ...    5.1649e-06  Tolerance :   1.0000e-05

             **** THE GBW FILE WAS UPDATED (16meoh.pires.deturi.1meoh.dset-orca.engrad-mp2.def2tzvp.gbw) ****
             **** DENSITY FILE WAS UPDATED (16meoh.pires.deturi.1meoh.dset-orca.engrad-mp2.def2tzvp.scfp) ****
             **** ENERGY FILE WAS UPDATED (16meoh.pires.deturi.1meoh.dset-orca.engrad-mp2.def2tzvp.en.tmp) ****
             **** THE GBW FILE WAS UPDATED (16meoh.pires.deturi.1meoh.dset-orca.engrad-mp2.def2tzvp.gbw) ****
             **** DENSITY FILE WAS UPDATED (16meoh.pires.deturi.1meoh.dset-orca.engrad-mp2.def2tzvp.scfp) ****
----------------
ORBITAL ENERGIES
----------------

  NO   OCC          E(Eh)            E(eV) 
   0   2.0000     -20.557444      -559.3965 
   1   2.0000     -11.270313      -306.6808 
   2   2.0000      -1.352550       -36.8048 
   3   2.0000      -0.917687       -24.9715 
   4   2.0000      -0.685559       -18.6550 
   5   2.0000      -0.621009       -16.8985 
   6   2.0000      -0.587929       -15.9984 
   7   2.0000      -0.503969       -13.7137 
   8   2.0000      -0.449345       -12.2273 
   9   0.0000       0.134313         3.6548 
  10   0.0000       0.178898         4.8681 
  11   0.0000       0.227327         6.1859 
  12   0.0000       0.229627         6.2485 
  13   0.0000       0.254894         6.9360 
  14   0.0000       0.330406         8.9908 
  15   0.0000       0.338542         9.2122 
  16   0.0000       0.459488        12.5033 
  17   0.0000       0.520174        14.1547 
  18   0.0000       0.583599        15.8805 
  19   0.0000       0.604106        16.4386 
  20   0.0000       0.620857        16.8944 
  21   0.0000       0.654013        17.7966 
  22   0.0000       0.684232        18.6189 
  23   0.0000       0.704948        19.1826 
  24   0.0000       0.766885        20.8680 
  25   0.0000       0.883476        24.0406 
  26   0.0000       0.920797        25.0562 
  27   0.0000       0.944801        25.7093 
  28   0.0000       1.087643        29.5963 
  29   0.0000       1.122682        30.5497 
  30   0.0000       1.247101        33.9354 
  31   0.0000       1.529594        41.6224 
  32   0.0000       1.646568        44.8054 
  33   0.0000       1.709655        46.5221 
  34   0.0000       1.778201        48.3873 
  35   0.0000       1.785697        48.5913 
  36   0.0000       1.806311        49.1522 
  37   0.0000       1.838301        50.0227 
  38   0.0000       1.865508        50.7631 
  39   0.0000       1.970110        53.6094 
  40   0.0000       2.141015        58.2600 
  41   0.0000       2.224121        60.5214 
  42   0.0000       2.244716        61.0818 
  43   0.0000       2.278220        61.9935 
  44   0.0000       2.315521        63.0085 
  45   0.0000       2.445540        66.5465 
  46   0.0000       2.553028        69.4714 
  47   0.0000       2.561618        69.7052 
  48   0.0000       2.587191        70.4011 
  49   0.0000       2.623478        71.3885 
  50   0.0000       2.693142        73.2841 
  51   0.0000       2.795955        76.0818 
  52   0.0000       2.839263        77.2603 
  53   0.0000       2.911289        79.2202 
  54   0.0000       3.029925        82.4485 
  55   0.0000       3.119851        84.8955 
  56   0.0000       3.142164        85.5026 
  57   0.0000       3.249000        88.4098 
  58   0.0000       3.360577        91.4459 
  59   0.0000       3.425114        93.2021 
  60   0.0000       3.577472        97.3480 
  61   0.0000       3.638580        99.0108 
  62   0.0000       3.663960        99.7014 
  63   0.0000       3.716729       101.1373 
  64   0.0000       3.884087       105.6914 
  65   0.0000       3.889686       105.8437 
  66   0.0000       3.898346       106.0794 
  67   0.0000       4.257171       115.8435 
  68   0.0000       4.492086       122.2359 
  69   0.0000       4.534769       123.3973 
  70   0.0000       4.732340       128.7735 
  71   0.0000       4.857815       132.1879 
  72   0.0000       5.706683       155.2867 
  73   0.0000       5.800537       157.8406 
  74   0.0000       5.873161       159.8168 
  75   0.0000       6.139360       167.0605 
  76   0.0000       6.186190       168.3348 
  77   0.0000       6.358557       173.0251 
  78   0.0000       6.666732       181.4110 
  79   0.0000       6.953219       189.2067 
  80   0.0000       7.174199       195.2199 
  81   0.0000       7.224098       196.5777 
  82   0.0000       7.448397       202.6812 
  83   0.0000       7.602138       206.8647 
  84   0.0000      23.381083       636.2316 
  85   0.0000      45.150644      1228.6115 

                    ********************************
                    * MULLIKEN POPULATION ANALYSIS *
                    ********************************

-----------------------
MULLIKEN ATOMIC CHARGES
-----------------------
   0 O :   -0.537141
   1 H :    0.326119
   2 C :   -0.076805
   3 H :    0.106868
   4 H :    0.090123
   5 H :    0.090837
Sum of atomic charges:   -0.0000000

--------------------------------
MULLIKEN REDUCED ORBITAL CHARGES
--------------------------------
  0 O s       :     3.809972  s :     3.809972
      pz      :     1.386714  p :     4.691350
      px      :     1.834461
      py      :     1.470176
      dz2     :     0.009779  d :     0.034080
      dxz     :     0.003750
      dyz     :     0.007491
      dx2y2   :     0.008261
      dxy     :     0.004800
      f0      :     0.000296  f :     0.001739
      f+1     :     0.000424
      f-1     :     0.000167
      f+2     :     0.000216
      f-2     :     0.000173
      f+3     :     0.000222
      f-3     :     0.000240
  1 H s       :     0.630989  s :     0.630989
      pz      :     0.018590  p :     0.042892
      px      :     0.014963
      py      :     0.009338
  2 C s       :     3.196076  s :     3.196076
      pz      :     1.007104  p :     2.756437
      px      :     1.012925
      py      :     0.736408
      dz2     :     0.024241  d :     0.115225
      dxz     :     0.016629
      dyz     :     0.021343
      dx2y2   :     0.015960
      dxy     :     0.037051
      f0      :     0.000570  f :     0.009068
      f+1     :     0.000805
      f-1     :     0.001671
      f+2     :     0.001091
      f-2     :     0.001423
      f+3     :     0.001501
      f-3     :     0.002007
  3 H s       :     0.871906  s :     0.871906
      pz      :     0.012894  p :     0.021226
      px      :     0.005465
      py      :     0.002868
  4 H s       :     0.889788  s :     0.889788
      pz      :     0.003350  p :     0.020089
      px      :     0.010892
      py      :     0.005847
  5 H s       :     0.889178  s :     0.889178
      pz      :     0.006401  p :     0.019985
      px      :     0.008313
      py      :     0.005271


                     *******************************
                     * LOEWDIN POPULATION ANALYSIS *
                     *******************************

----------------------
LOEWDIN ATOMIC CHARGES
----------------------
   0 O :   -0.122356
   1 H :    0.188466
   2 C :   -0.342725
   3 H :    0.101571
   4 H :    0.087642
   5 H :    0.087401

-------------------------------
LOEWDIN REDUCED ORBITAL CHARGES
-------------------------------
  0 O s       :     3.394641  s :     3.394641
      pz      :     1.374747  p :     4.652381
      px      :     1.742562
      py      :     1.535072
      dz2     :     0.020710  d :     0.070943
      dxz     :     0.008490
      dyz     :     0.014904
      dx2y2   :     0.014745
      dxy     :     0.012094
      f0      :     0.000539  f :     0.004391
      f+1     :     0.000532
      f-1     :     0.001011
      f+2     :     0.000550
      f-2     :     0.000488
      f+3     :     0.000667
      f-3     :     0.000604
  1 H s       :     0.666622  s :     0.666622
      pz      :     0.069420  p :     0.144912
      px      :     0.043921
      py      :     0.031571
  2 C s       :     2.862197  s :     2.862197
      pz      :     1.045773  p :     2.991171
      px      :     1.067301
      py      :     0.878098
      dz2     :     0.079583  d :     0.429935
      dxz     :     0.052856
      dyz     :     0.081269
      dx2y2   :     0.074228
      dxy     :     0.141998
      f0      :     0.004433  f :     0.059421
      f+1     :     0.002642
      f-1     :     0.012502
      f+2     :     0.009756
      f-2     :     0.007391
      f+3     :     0.009865
      f-3     :     0.012833
  3 H s       :     0.839929  s :     0.839929
      pz      :     0.032804  p :     0.058499
      px      :     0.016189
      py      :     0.009506
  4 H s       :     0.853928  s :     0.853928
      pz      :     0.012103  p :     0.058430
      px      :     0.029766
      py      :     0.016561
  5 H s       :     0.853967  s :     0.853967
      pz      :     0.019446  p :     0.058631
      px      :     0.023834
      py      :     0.015351


                      *****************************
                      * MAYER POPULATION ANALYSIS *
                      *****************************

  NA   - Mulliken gross atomic population
  ZA   - Total nuclear charge
  QA   - Mulliken gross atomic charge
  VA   - Mayer's total valence
  BVA  - Mayer's bonded valence
  FA   - Mayer's free valence

  ATOM       NA         ZA         QA         VA         BVA        FA
  0 O      8.5371     8.0000    -0.5371     1.7970     1.7970     0.0000
  1 H      0.6739     1.0000     0.3261     0.9002     0.9002    -0.0000
  2 C      6.0768     6.0000    -0.0768     3.8992     3.8992    -0.0000
  3 H      0.8931     1.0000     0.1069     0.9641     0.9641    -0.0000
  4 H      0.9099     1.0000     0.0901     0.9614     0.9614     0.0000
  5 H      0.9092     1.0000     0.0908     0.9615     0.9615    -0.0000

  Mayer bond orders larger than 0.100000
B(  0-O ,  1-H ) :   0.8921 B(  0-O ,  2-C ) :   0.9335 B(  2-C ,  3-H ) :   0.9846 
B(  2-C ,  4-H ) :   0.9876 B(  2-C ,  5-H ) :   0.9873 

-------
TIMINGS
-------

Total SCF time: 0 days 0 hours 0 min 5 sec 

Total time                  ....       5.216 sec
Sum of individual times     ....       4.416 sec  ( 84.7%)

Fock matrix formation       ....       3.595 sec  ( 68.9%)
Diagonalization             ....       0.109 sec  (  2.1%)
Density matrix formation    ....       0.197 sec  (  3.8%)
Population analysis         ....       0.192 sec  (  3.7%)
Initial guess               ....       0.184 sec  (  3.5%)
Orbital Transformation      ....       0.000 sec  (  0.0%)
Orbital Orthonormalization  ....       0.000 sec  (  0.0%)
DIIS solution               ....       0.003 sec  (  0.1%)
SOSCF solution              ....       0.123 sec  (  2.4%)


           ************************************************************
           *        Program running with 6 parallel MPI-processes     *
           *              working on a common directory               *
           ************************************************************

------------------------------------------------------------------------------
                                ORCA  MP2 
------------------------------------------------------------------------------

Freezing NCore=4 chemical core electrons
MP2 will be done in the AO integral direct mode
The Q1-step will be done using symmetric double matrices
Dimension of the basis                    ...   86
Memory devoted for MP2                    ... 8000 MB   
Memory needed for all in one shot         ...    6 MB
Number of MOs that can be treated together... 3258      
MP2 density construction                  ... relaxed
The MP2 gradient is requested => amplitudes will be stored on disk
Total number of MOs              ...    7
Number of MOs treated per batch  ...    2 
Number of batches necessary      ...    1 
OPERATORS   0/  0 PASS   0
-----------------------------------------------
 MP2 CORRELATION ENERGY   :     -0.417204217 Eh
-----------------------------------------------


---------------------
MP2 DENSITY FORMATION
---------------------

Completing the external part of the density      ... done
Storing the unrelaxed density                    ... done

Calculating G(D)                                 ... done
Completing the Lagrangian                        ... done
Solving the Z-vector equations                   ... 

------------------------------------------------------------------------------
                           ORCA CP-SCF CALCULATION
------------------------------------------------------------------------------

Input orbitals are from        ... 16meoh.pires.deturi.1meoh.dset-orca.engrad-mp2.def2tzvp.gbw
Input Perturbation             ... 16meoh.pires.deturi.1meoh.dset-orca.engrad-mp2.def2tzvp.pin.tmp
Wavefunction output            ... 16meoh.pires.deturi.1meoh.dset-orca.engrad-mp2.def2tzvp.pout.tmp
Perturbation mode              ... Real perturbation (singlet)
Solver                         ... POPLE
Max. number of iterations      ... 128
Convergence tolerance          ... 1.000e-08
Integral handling              ... Direct
Number of perturbations        ... 1
Number of operators            ... 1
Orbital ranges used for CP-SCF:
 Operator 0:  Orbitals   0...  8  to   9... 85
Variables per vector in CP-SCF ... 693
Number of vectors sought       ... 1
     CP-SCF ITERATION   0: 
     CP-SCF ITERATION   1:      0.000118353960
     CP-SCF ITERATION   2:      0.000005900346
     CP-SCF ITERATION   3:      0.000000879183
     CP-SCF ITERATION   4:      0.000000052951
     CP-SCF ITERATION   5:      0.000000001548
                                                 ... done
Finalizing the relaxed density                   ... done
Transforming P to the AO basis                   ... done
Storing the relaxed density                      ... done

------------------------------------
ENERGY WEIGHTED DENSITY FINALIZATION
------------------------------------

Gathering the parts of the W-matrix              ...                                                      done
Forming the Z-density                            ... done
Transforming Z to the AO basis                   ... done
Calculating G(Z)                                 ... done
Finalizing the W-matrix                          ...                                                      done
Transforming W to the AO basis and storing       ... done

                *********************************************
                * UNRELAXED MP2 DENSITY POPULATION ANALYSIS *
                *********************************************

------------------------------------------------------------------------------
                           ORCA POPULATION ANALYSIS
------------------------------------------------------------------------------
Input electron density              ... 16meoh.pires.deturi.1meoh.dset-orca.engrad-mp2.def2tzvp.pmp2ur
BaseName (.gbw .S,...)              ... 16meoh.pires.deturi.1meoh.dset-orca.engrad-mp2.def2tzvp

                    ********************************
                    * MULLIKEN POPULATION ANALYSIS *
                    ********************************

-----------------------
MULLIKEN ATOMIC CHARGES
-----------------------
   0 O :   -0.526038
   1 H :    0.323371
   2 C :   -0.092827
   3 H :    0.109670
   4 H :    0.092568
   5 H :    0.093256
Sum of atomic charges:   -0.0000000

--------------------------------
MULLIKEN REDUCED ORBITAL CHARGES
--------------------------------
  0 O s       :     3.804684  s :     3.804684
      pz      :     1.377296  p :     4.655704
      px      :     1.821192
      py      :     1.457217
      dz2     :     0.015074  d :     0.061243
      dxz     :     0.009357
      dyz     :     0.012811
      dx2y2   :     0.013602
      dxy     :     0.010400
      f0      :     0.000673  f :     0.004407
      f+1     :     0.000784
      f-1     :     0.000564
      f+2     :     0.000597
      f-2     :     0.000552
      f+3     :     0.000610
      f-3     :     0.000626
  1 H s       :     0.631964  s :     0.631964
      pz      :     0.018620  p :     0.044665
      px      :     0.015802
      py      :     0.010243
  2 C s       :     3.194094  s :     3.194094
      pz      :     1.003759  p :     2.750430
      px      :     1.008986
      py      :     0.737684
      dz2     :     0.028811  d :     0.135883
      dxz     :     0.021324
      dyz     :     0.025132
      dx2y2   :     0.020099
      dxy     :     0.040517
      f0      :     0.001056  f :     0.012420
      f+1     :     0.001286
      f-1     :     0.002180
      f+2     :     0.001540
      f-2     :     0.001910
      f+3     :     0.002019
      f-3     :     0.002429
  3 H s       :     0.866015  s :     0.866015
      pz      :     0.013786  p :     0.024315
      px      :     0.006545
      py      :     0.003984
  4 H s       :     0.884150  s :     0.884150
      pz      :     0.004502  p :     0.023282
      px      :     0.011837
      py      :     0.006943
  5 H s       :     0.883575  s :     0.883575
      pz      :     0.007472  p :     0.023169
      px      :     0.009325
      py      :     0.006372


                     *******************************
                     * LOEWDIN POPULATION ANALYSIS *
                     *******************************

----------------------
LOEWDIN ATOMIC CHARGES
----------------------
   0 O :   -0.114571
   1 H :    0.186559
   2 C :   -0.353261
   3 H :    0.103317
   4 H :    0.089092
   5 H :    0.088865

-------------------------------
LOEWDIN REDUCED ORBITAL CHARGES
-------------------------------
  0 O s       :     3.391141  s :     3.391141
      pz      :     1.365127  p :     4.616558
      px      :     1.729879
      py      :     1.521552
      dz2     :     0.026388  d :     0.099558
      dxz     :     0.014264
      dyz     :     0.020484
      dx2y2   :     0.020716
      dxy     :     0.017707
      f0      :     0.000971  f :     0.007314
      f+1     :     0.000945
      f-1     :     0.001432
      f+2     :     0.000971
      f-2     :     0.000889
      f+3     :     0.001080
      f-3     :     0.001026
  1 H s       :     0.664871  s :     0.664871
      pz      :     0.071136  p :     0.148570
      px      :     0.044914
      py      :     0.032520
  2 C s       :     2.861002  s :     2.861002
      pz      :     1.040173  p :     2.977367
      px      :     1.061325
      py      :     0.875870
      dz2     :     0.083979  d :     0.450593
      dxz     :     0.057665
      dyz     :     0.085112
      dx2y2   :     0.078456
      dxy     :     0.145382
      f0      :     0.005209  f :     0.064299
      f+1     :     0.003400
      f-1     :     0.013029
      f+2     :     0.010415
      f-2     :     0.008134
      f+3     :     0.010515
      f-3     :     0.013597
  3 H s       :     0.833153  s :     0.833153
      pz      :     0.035062  p :     0.063531
      px      :     0.017635
      py      :     0.010834
  4 H s       :     0.847234  s :     0.847234
      pz      :     0.013397  p :     0.063674
      px      :     0.031876
      py      :     0.018401
  5 H s       :     0.847267  s :     0.847267
      pz      :     0.021127  p :     0.063867
      px      :     0.025632
      py      :     0.017108


                      *****************************
                      * MAYER POPULATION ANALYSIS *
                      *****************************

  NA   - Mulliken gross atomic population
  ZA   - Total nuclear charge
  QA   - Mulliken gross atomic charge
  VA   - Mayer's total valence
  BVA  - Mayer's bonded valence
  FA   - Mayer's free valence

  ATOM       NA         ZA         QA         VA         BVA        FA
  0 O      8.5260     8.0000    -0.5260     2.0934     1.6907     0.4027
  1 H      0.6766     1.0000     0.3234     0.9069     0.8536     0.0532
  2 C      6.0928     6.0000    -0.0928     4.0041     3.7262     0.2779
  3 H      0.8903     1.0000     0.1097     0.9730     0.9261     0.0469
  4 H      0.9074     1.0000     0.0926     0.9713     0.9223     0.0491
  5 H      0.9067     1.0000     0.0933     0.9714     0.9225     0.0490

  Mayer bond orders larger than 0.100000
B(  0-O ,  1-H ) :   0.8463 B(  0-O ,  2-C ) :   0.8746 B(  2-C ,  3-H ) :   0.9472 
B(  2-C ,  4-H ) :   0.9495 B(  2-C ,  5-H ) :   0.9493 


                *******************************************
                * RELAXED MP2 DENSITY POPULATION ANALYSIS *
                *******************************************

------------------------------------------------------------------------------
                           ORCA POPULATION ANALYSIS
------------------------------------------------------------------------------
Input electron density              ... 16meoh.pires.deturi.1meoh.dset-orca.engrad-mp2.def2tzvp.pmp2re
BaseName (.gbw .S,...)              ... 16meoh.pires.deturi.1meoh.dset-orca.engrad-mp2.def2tzvp

                    ********************************
                    * MULLIKEN POPULATION ANALYSIS *
                    ********************************

-----------------------
MULLIKEN ATOMIC CHARGES
-----------------------
   0 O :   -0.488012
   1 H :    0.318313
   2 C :   -0.175693
   3 H :    0.127904
   4 H :    0.108504
   5 H :    0.108983
Sum of atomic charges:   -0.0000000

--------------------------------
MULLIKEN REDUCED ORBITAL CHARGES
--------------------------------
  0 O s       :     3.806413  s :     3.806413
      pz      :     1.365610  p :     4.618252
      px      :     1.808549
      py      :     1.444094
      dz2     :     0.014154  d :     0.058997
      dxz     :     0.009120
      dyz     :     0.012216
      dx2y2   :     0.012970
      dxy     :     0.010539
      f0      :     0.000656  f :     0.004348
      f+1     :     0.000769
      f-1     :     0.000562
      f+2     :     0.000587
      f-2     :     0.000550
      f+3     :     0.000608
      f-3     :     0.000617
  1 H s       :     0.636357  s :     0.636357
      pz      :     0.017723  p :     0.045330
      px      :     0.016744
      py      :     0.010864
  2 C s       :     3.216110  s :     3.216110
      pz      :     1.028495  p :     2.821086
      px      :     1.036198
      py      :     0.756393
      dz2     :     0.027660  d :     0.126630
      dxz     :     0.019122
      dyz     :     0.022856
      dx2y2   :     0.020502
      dxy     :     0.036490
      f0      :     0.000997  f :     0.011867
      f+1     :     0.001216
      f-1     :     0.002109
      f+2     :     0.001457
      f-2     :     0.001796
      f+3     :     0.001979
      f-3     :     0.002313
  3 H s       :     0.848930  s :     0.848930
      pz      :     0.012572  p :     0.023165
      px      :     0.006489
      py      :     0.004104
  4 H s       :     0.869319  s :     0.869319
      pz      :     0.004686  p :     0.022177
      px      :     0.010826
      py      :     0.006665
  5 H s       :     0.868968  s :     0.868968
      pz      :     0.007150  p :     0.022049
      px      :     0.008749
      py      :     0.006150


                     *******************************
                     * LOEWDIN POPULATION ANALYSIS *
                     *******************************

----------------------
LOEWDIN ATOMIC CHARGES
----------------------
   0 O :   -0.101529
   1 H :    0.189193
   2 C :   -0.388165
   3 H :    0.110592
   4 H :    0.095026
   5 H :    0.094883

-------------------------------
LOEWDIN REDUCED ORBITAL CHARGES
-------------------------------
  0 O s       :     3.394106  s :     3.394106
      pz      :     1.366881  p :     4.600998
      px      :     1.721809
      py      :     1.512308
      dz2     :     0.025904  d :     0.099001
      dxz     :     0.014181
      dyz     :     0.020342
      dx2y2   :     0.020595
      dxy     :     0.017980
      f0      :     0.000986  f :     0.007424
      f+1     :     0.000955
      f-1     :     0.001445
      f+2     :     0.000992
      f-2     :     0.000901
      f+3     :     0.001096
      f-3     :     0.001048
  1 H s       :     0.661512  s :     0.661512
      pz      :     0.070402  p :     0.149295
      px      :     0.045740
      py      :     0.033153
  2 C s       :     2.866899  s :     2.866899
      pz      :     1.054423  p :     3.017204
      px      :     1.076932
      py      :     0.885849
      dz2     :     0.082213  d :     0.441299
      dxz     :     0.054798
      dyz     :     0.082465
      dx2y2   :     0.077090
      dxy     :     0.144732
      f0      :     0.005109  f :     0.062762
      f+1     :     0.003276
      f-1     :     0.012771
      f+2     :     0.010236
      f-2     :     0.007916
      f+3     :     0.010083
      f-3     :     0.013372
  3 H s       :     0.825508  s :     0.825508
      pz      :     0.034729  p :     0.063900
      px      :     0.017984
      py      :     0.011187
  4 H s       :     0.840527  s :     0.840527
      pz      :     0.013911  p :     0.064447
      px      :     0.031649
      py      :     0.018888
  5 H s       :     0.840487  s :     0.840487
      pz      :     0.021292  p :     0.064630
      px      :     0.025728
      py      :     0.017610


                      *****************************
                      * MAYER POPULATION ANALYSIS *
                      *****************************

  NA   - Mulliken gross atomic population
  ZA   - Total nuclear charge
  QA   - Mulliken gross atomic charge
  VA   - Mayer's total valence
  BVA  - Mayer's bonded valence
  FA   - Mayer's free valence

  ATOM       NA         ZA         QA         VA         BVA        FA
  0 O      8.4880     8.0000    -0.4880     2.1478     1.7516     0.3962
  1 H      0.6817     1.0000     0.3183     0.9092     0.8558     0.0534
  2 C      6.1757     6.0000    -0.1757     4.0261     3.7505     0.2757
  3 H      0.8721     1.0000     0.1279     0.9647     0.9183     0.0464
  4 H      0.8915     1.0000     0.1085     0.9639     0.9155     0.0484
  5 H      0.8910     1.0000     0.1090     0.9649     0.9165     0.0484

  Mayer bond orders larger than 0.100000
B(  0-O ,  1-H ) :   0.8465 B(  0-O ,  2-C ) :   0.9263 B(  2-C ,  3-H ) :   0.9392 
B(  2-C ,  4-H ) :   0.9388 B(  2-C ,  5-H ) :   0.9391 


----------------------------------
MP2 DERIVATIVE INTEGRAL GENERATION
----------------------------------


Input Wavefunction Amplitudes       ... 16meoh.pires.deturi.1meoh.dset-orca.engrad-mp2.def2tzvp.mp2tsaa.tmp
Input Correlated Electron Density   ... 16meoh.pires.deturi.1meoh.dset-orca.engrad-mp2.def2tzvp.pmp2re
Input Energy Weighted Density       ... 16meoh.pires.deturi.1meoh.dset-orca.engrad-mp2.def2tzvp.wmp2.tmp
Input SCF Electron Density          ... 16meoh.pires.deturi.1meoh.dset-orca.engrad-mp2.def2tzvp.scfp

One-Electron Terms    ...
                        ... One-Electron Terms done
Prescreening matrices              ... done

Batch handling in the gradient evaluation:
Memory available                      ... 8000.0 MB
Memory per occupied orbital in Q2     ...    0.4 MB
Memory per occupied orbital in Q3     ...    0.0 MB
Total memory requirement per |i>      ...    0.4 MB
Max. Number of orbitals possible      ...  18729
Number of orbitals treated per batch  ...      7
Number of batches to be done          ...      1
Batch   0: i=    2 ...     8

---------------------------------------
MP2 TOTAL ENERGY:     -115.506372183 Eh
---------------------------------------

The final MP2 gradient
  0:  -0.00976554   0.00394263   0.03005948
  1:   0.00708902  -0.01017065  -0.02167392
  2:   0.00013503   0.00012612  -0.00617223
  3:  -0.00071195   0.00534925   0.00250754
  4:   0.00418009   0.00083632  -0.00130333
  5:  -0.00092666  -0.00008366  -0.00341753

-----------------------------------
NORM OF THE MP2 GRADIENT:  0.041760
-----------------------------------

-------------------------   --------------------
FINAL SINGLE POINT ENERGY      -115.506372183212
-------------------------   --------------------


                            ***************************************
                            *     ORCA property calculations      *
                            ***************************************

                                    ---------------------
                                    Active property flags
                                    ---------------------
   (+) Dipole Moment


------------------------------------------------------------------------------
                       ORCA ELECTRIC PROPERTIES CALCULATION
------------------------------------------------------------------------------

Dipole Moment Calculation                       ... on
Quadrupole Moment Calculation                   ... off
Polarizability Calculation                      ... off
GBWName                                         ... 16meoh.pires.deturi.1meoh.dset-orca.engrad-mp2.def2tzvp.gbw
Electron density file                           ... 16meoh.pires.deturi.1meoh.dset-orca.engrad-mp2.def2tzvp.scfp
The origin for moment calculation is the CENTER OF MASS  = (-5.973543,  0.160564  3.622583)

-------------
DIPOLE MOMENT
-------------
                                X             Y             Z
Electronic contribution:      0.33012       1.60347      -0.55508
Nuclear contribution   :     -0.25230      -2.26144       0.20956
                        -----------------------------------------
Total Dipole Moment    :      0.07782      -0.65796      -0.34552
                        -----------------------------------------
Magnitude (a.u.)       :      0.74723
Magnitude (Debye)      :      1.89931



--------------------
Rotational spectrum 
--------------------
 
Rotational constants in cm-1:     4.125607     0.839719     0.805833 
Rotational constants in MHz : 123682.594855 25174.150814 24158.269291 

 Dipole components along the rotational axes: 
x,y,z [a.u.] :    -0.408636    -0.625595     0.001794 
x,y,z [Debye]:    -1.038670    -1.590136     0.004561 

 

                         *** MP2 UNRELAXED DENSITY ***

------------------------------------------------------------------------------
                       ORCA ELECTRIC PROPERTIES CALCULATION
------------------------------------------------------------------------------

Dipole Moment Calculation                       ... on
Quadrupole Moment Calculation                   ... off
Polarizability Calculation                      ... off
GBWName                                         ... 16meoh.pires.deturi.1meoh.dset-orca.engrad-mp2.def2tzvp.gbw
Electron density file                           ... 16meoh.pires.deturi.1meoh.dset-orca.engrad-mp2.def2tzvp.pmp2ur
The origin for moment calculation is the CENTER OF MASS  = (-5.973543,  0.160564  3.622583)

-------------
DIPOLE MOMENT
-------------
                                X             Y             Z
Electronic contribution:      0.32975       1.61926      -0.55092
Nuclear contribution   :     -0.25230      -2.26144       0.20956
                        -----------------------------------------
Total Dipole Moment    :      0.07745      -0.64218      -0.34136
                        -----------------------------------------
Magnitude (a.u.)       :      0.73138
Magnitude (Debye)      :      1.85902



--------------------
Rotational spectrum 
--------------------
 
Rotational constants in cm-1:     4.125607     0.839719     0.805833 
Rotational constants in MHz : 123682.594855 25174.150814 24158.269291 

 Dipole components along the rotational axes: 
x,y,z [a.u.] :    -0.396714    -0.614434     0.001831 
x,y,z [Debye]:    -1.008367    -1.561767     0.004654 

 

                           *** MP2 RELAXED DENSITY ***

------------------------------------------------------------------------------
                       ORCA ELECTRIC PROPERTIES CALCULATION
------------------------------------------------------------------------------

Dipole Moment Calculation                       ... on
Quadrupole Moment Calculation                   ... off
Polarizability Calculation                      ... off
GBWName                                         ... 16meoh.pires.deturi.1meoh.dset-orca.engrad-mp2.def2tzvp.gbw
Electron density file                           ... 16meoh.pires.deturi.1meoh.dset-orca.engrad-mp2.def2tzvp.pmp2re
The origin for moment calculation is the CENTER OF MASS  = (-5.973543,  0.160564  3.622583)

-------------
DIPOLE MOMENT
-------------
                                X             Y             Z
Electronic contribution:      0.33075       1.64356      -0.54934
Nuclear contribution   :     -0.25230      -2.26144       0.20956
                        -----------------------------------------
Total Dipole Moment    :      0.07844      -0.61788      -0.33978
                        -----------------------------------------
Magnitude (a.u.)       :      0.70950
Magnitude (Debye)      :      1.80340



--------------------
Rotational spectrum 
--------------------
 
Rotational constants in cm-1:     4.125607     0.839719     0.805833 
Rotational constants in MHz : 123682.594855 25174.150814 24158.269291 

 Dipole components along the rotational axes: 
x,y,z [a.u.] :    -0.375942    -0.601704     0.002153 
x,y,z [Debye]:    -0.955568    -1.529411     0.005472 

 

Timings for individual modules:

Sum of individual times         ...       15.352 sec (=   0.256 min)
GTO integral calculation        ...        1.342 sec (=   0.022 min)   8.7 %
SCF iterations                  ...        5.904 sec (=   0.098 min)  38.5 %
MP2 module                      ...        8.106 sec (=   0.135 min)  52.8 %


                 $$$$$$$$$$$$$$$$  JOB NUMBER  2 $$$$$$$$$$$$$$


                     *******************************
                     * Energy+Gradient Calculation *
                     *******************************

---------------------------------
CARTESIAN COORDINATES (ANGSTROEM)
---------------------------------
  O     -5.309877    2.173013    1.188583
  H     -4.534322    1.587488    1.379525
  C     -5.524215    2.030738   -0.202329
  H     -6.399409    2.646836   -0.422719
  H     -5.729319    0.987319   -0.473929
  H     -4.658344    2.394045   -0.781356

----------------------------
CARTESIAN COORDINATES (A.U.)
----------------------------
  NO LB      ZA    FRAG     MASS         X           Y           Z
   0 O     8.0000    0    15.999  -10.034214    4.106399    2.246096
   1 H     1.0000    0     1.008   -8.568626    2.999917    2.606925
   2 C     6.0000    0    12.011  -10.439254    3.837539   -0.382346
   3 H     1.0000    0     1.008  -12.093130    5.001795   -0.798823
   4 H     1.0000    0     1.008  -10.826844    1.865763   -0.895597
   5 H     1.0000    0     1.008   -8.802995    4.524089   -1.476548

--------------------------------
INTERNAL COORDINATES (ANGSTROEM)
--------------------------------
 O      0   0   0     0.000000000000     0.00000000     0.00000000
 H      1   0   0     0.990345874601     0.00000000     0.00000000
 C      1   2   0     1.414502631699   104.40562442     0.00000000
 H      3   1   2     1.092754388390   105.24642248   178.19007118
 H      3   1   2     1.097523380287   111.54806399    59.33919115
 H      3   1   2     1.103175771887   111.34980763   296.98462338

---------------------------
INTERNAL COORDINATES (A.U.)
---------------------------
 O      0   0   0     0.000000000000     0.00000000     0.00000000
 H      1   0   0     1.871482480855     0.00000000     0.00000000
 C      1   2   0     2.673022589622   104.40562442     0.00000000
 H      3   1   2     2.065006525698   105.24642248   178.19007118
 H      3   1   2     2.074018614317   111.54806399    59.33919115
 H      3   1   2     2.084700086444   111.34980763   296.98462338

---------------------
BASIS SET INFORMATION
---------------------
There are 3 groups of distinct atoms

 Group   1 Type O   : 11s6p2d1f contracted to 5s3p2d1f pattern {62111/411/11/1}
 Group   2 Type H   : 5s1p contracted to 3s1p pattern {311/1}
 Group   3 Type C   : 11s6p2d1f contracted to 5s3p2d1f pattern {62111/411/11/1}

Atom   0O    basis set group =>   1
Atom   1H    basis set group =>   2
Atom   2C    basis set group =>   3
Atom   3H    basis set group =>   2
Atom   4H    basis set group =>   2
Atom   5H    basis set group =>   2


           ************************************************************
           *        Program running with 6 parallel MPI-processes     *
           *              working on a common directory               *
           ************************************************************
------------------------------------------------------------------------------
                           ORCA GTO INTEGRAL CALCULATION
------------------------------------------------------------------------------

                         BASIS SET STATISTICS AND STARTUP INFO

 # of primitive gaussian shells          ...   64
 # of primitive gaussian functions       ...  124
 # of contracted shells                  ...   38
 # of contracted basis functions         ...   86
 Highest angular momentum                ...    3
 Maximum contraction depth               ...    6
 Integral package used                   ... LIBINT
 Integral threshhold            Thresh   ...  2.500e-11
 Primitive cut-off              TCut     ...  2.500e-12


------------------------------ INTEGRAL EVALUATION ----------------------------


 * One electron integrals 
 Pre-screening matrix                    ... done
 Shell pair data                         ... done (   0.000 sec)



           ************************************************************
           *        Program running with 6 parallel MPI-processes     *
           *              working on a common directory               *
           ************************************************************
-------------------------------------------------------------------------------
                                 ORCA SCF
-------------------------------------------------------------------------------

------------
SCF SETTINGS
------------
Hamiltonian:
 Ab initio Hamiltonian  Method          .... Hartree-Fock(GTOs)


General Settings:
 Integral files         IntName         .... 16meoh.pires.deturi.1meoh.dset-orca.engrad-mp2.def2tzvp_job2
 Hartree-Fock type      HFTyp           .... RHF
 Total Charge           Charge          ....    0
 Multiplicity           Mult            ....    1
 Number of Electrons    NEL             ....   18
 Basis Dimension        Dim             ....   86
 Nuclear Repulsion      ENuc            ....     40.2728235206 Eh

Convergence Acceleration:
 DIIS                   CNVDIIS         .... on
   Start iteration      DIISMaxIt       ....    12
   Startup error        DIISStart       ....  0.200000
   # of expansion vecs  DIISMaxEq       ....     5
   Bias factor          DIISBfac        ....   1.050
   Max. coefficient     DIISMaxC        ....  10.000
 Newton-Raphson         CNVNR           .... off
 SOSCF                  CNVSOSCF        .... on
   Start iteration      SOSCFMaxIt      ....   150
   Startup grad/error   SOSCFStart      ....  0.003300
 Level Shifting         CNVShift        .... on
   Level shift para.    LevelShift      ....    0.2500
   Turn off err/grad.   ShiftErr        ....    0.0010
 Zerner damping         CNVZerner       .... off
 Static damping         CNVDamp         .... on
   Fraction old density DampFac         ....    0.7000
   Max. Damping (<1)    DampMax         ....    0.9800
   Min. Damping (>=0)   DampMin         ....    0.0000
   Turn off err/grad.   DampErr         ....    0.1000
 Fernandez-Rico         CNVRico         .... off

SCF Procedure:
 Maximum # iterations   MaxIter         ....   125
 SCF integral mode      SCFMode         .... Direct
   Integral package                     .... LIBINT
 Reset frequency        DirectResetFreq ....    20
 Integral Threshold     Thresh          ....  2.500e-11 Eh
 Primitive CutOff       TCut            ....  2.500e-12 Eh

Convergence Tolerance:
 Convergence Check Mode ConvCheckMode   .... Total+1el-Energy
 Convergence forced     ConvForced      .... 1
 Energy Change          TolE            ....  1.000e-08 Eh
 1-El. energy change                    ....  1.000e-05 Eh
 Orbital Gradient       TolG            ....  1.000e-05
 Orbital Rotation angle TolX            ....  1.000e-05
 DIIS Error             TolErr          ....  5.000e-07


Diagonalization of the overlap matrix:
Smallest eigenvalue                        ... 1.676e-03
Time for diagonalization                   ...    0.021 sec
Threshold for overlap eigenvalues          ... 1.000e-08
Number of eigenvalues below threshold      ... 0
Time for construction of square roots      ...    0.000 sec
Total time needed                          ...    0.022 sec

---------------------
INITIAL GUESS: MOREAD
---------------------
Guess MOs are being read from file: 16meoh.pires.deturi.1meoh.dset-orca.engrad-mp2.def2tzvp.gbw
Input geometry compatible with but different from current geometry
Input basis set matches current basis set (good)
MOs were renormalized
MOs were reorthogonalized (Cholesky)
                      ------------------
                      INITIAL GUESS DONE (   0.3 sec)
                      ------------------
--------------
SCF ITERATIONS
--------------
ITER       Energy         Delta-E        Max-DP      RMS-DP      [F,P]     Damp
               ***  Starting incremental Fock matrix formation  ***
  0   -112.5610178527   0.000000000000 0.10287446  0.00643850  0.3490417 0.7000
  1   -113.0770971344  -0.516079281717 0.09108699  0.00534974  0.2981461 0.7000
  2   -113.5369940407  -0.459896906292 0.07008842  0.00407128  0.2508187 0.7000
  3   -113.9167471593  -0.379753118608 0.05236104  0.00306012  0.2029644 0.7000
                               ***Turning on DIIS***
  4   -114.2175176479  -0.300770488550 0.03874125  0.00230243  0.1663237 0.7000
  5   -114.4851146036  -0.267596955738 0.03006996  0.00188286  0.1357782 0.7000
  6   -114.6039627990  -0.118848195408 0.02291415  0.00153533  0.1060127 0.7000
  7   -114.7209555260  -0.116992726910 0.05634298  0.00397860  0.0792320 0.0000
[...]
------------------------------------

Gathering the parts of the W-matrix              ...                                                      done
Forming the Z-density                            ... done
Transforming Z to the AO basis                   ... done
Calculating G(Z)                                 ... done
Finalizing the W-matrix                          ...                                                      done
Transforming W to the AO basis and storing       ... done

                *********************************************
                * UNRELAXED MP2 DENSITY POPULATION ANALYSIS *
                *********************************************

------------------------------------------------------------------------------
                           ORCA POPULATION ANALYSIS
------------------------------------------------------------------------------
Input electron density              ... 16meoh.pires.deturi.1meoh.dset-orca.engrad-mp2.def2tzvp_job16.pmp2ur
BaseName (.gbw .S,...)              ... 16meoh.pires.deturi.1meoh.dset-orca.engrad-mp2.def2tzvp_job16

                    ********************************
                    * MULLIKEN POPULATION ANALYSIS *
                    ********************************

-----------------------
MULLIKEN ATOMIC CHARGES
-----------------------
   0 O :   -0.526130
   1 H :    0.324062
   2 C :   -0.092482
   3 H :    0.109749
   4 H :    0.092429
   5 H :    0.092372
Sum of atomic charges:    0.0000000

--------------------------------
MULLIKEN REDUCED ORBITAL CHARGES
--------------------------------
  0 O s       :     3.803688  s :     3.803688
      pz      :     1.638062  p :     4.656778
      px      :     1.674333
      py      :     1.344383
      dz2     :     0.012562  d :     0.061245
      dxz     :     0.010705
      dyz     :     0.013354
      dx2y2   :     0.007719
      dxy     :     0.016906
      f0      :     0.000557  f :     0.004419
      f+1     :     0.000560
      f-1     :     0.000754
      f+2     :     0.000606
      f-2     :     0.000645
      f+3     :     0.000774
      f-3     :     0.000525
  1 H s       :     0.631210  s :     0.631210
      pz      :     0.012261  p :     0.044727
      px      :     0.015477
      py      :     0.016990
  2 C s       :     3.193958  s :     3.193958
      pz      :     0.842688  p :     2.749624
      px      :     1.013721
      py      :     0.893215
      dz2     :     0.042223  d :     0.136428
      dxz     :     0.016008
      dyz     :     0.022112
      dx2y2   :     0.020911
      dxy     :     0.035173
      f0      :     0.001940  f :     0.012472
      f+1     :     0.001153
      f-1     :     0.002969
      f+2     :     0.001575
      f-2     :     0.001954
      f+3     :     0.001344
      f-3     :     0.001538
  3 H s       :     0.865929  s :     0.865929
      pz      :     0.004034  p :     0.024322
      px      :     0.009660
      py      :     0.010628
  4 H s       :     0.884166  s :     0.884166
      pz      :     0.004269  p :     0.023406
      px      :     0.013455
      py      :     0.005682
  5 H s       :     0.884733  s :     0.884733
      pz      :     0.013286  p :     0.022894
      px      :     0.004324
      py      :     0.005285


                     *******************************
                     * LOEWDIN POPULATION ANALYSIS *
                     *******************************

----------------------
LOEWDIN ATOMIC CHARGES
----------------------
   0 O :   -0.112353
   1 H :    0.186559
   2 C :   -0.355724
   3 H :    0.103134
   4 H :    0.088463
   5 H :    0.089920

-------------------------------
LOEWDIN REDUCED ORBITAL CHARGES
-------------------------------
  0 O s       :     3.388846  s :     3.388846
      pz      :     1.632076  p :     4.616285
      px      :     1.636722
      py      :     1.347487
      dz2     :     0.022554  d :     0.099883
      dxz     :     0.014378
      dyz     :     0.021624
      dx2y2   :     0.013365
      dxy     :     0.027962
      f0      :     0.000953  f :     0.007339
      f+1     :     0.000883
      f-1     :     0.001264
      f+2     :     0.001074
      f-2     :     0.001212
      f+3     :     0.001139
      f-3     :     0.000813
  1 H s       :     0.664675  s :     0.664675
      pz      :     0.035392  p :     0.148766
      px      :     0.055926
      py      :     0.057448
  2 C s       :     2.861176  s :     2.861176
      pz      :     0.950015  p :     2.977430
      px      :     1.065690
      py      :     0.961726
      dz2     :     0.148185  d :     0.452465
      dxz     :     0.046632
      dyz     :     0.090114
      dx2y2   :     0.053346
      dxy     :     0.114187
      f0      :     0.007757  f :     0.064652
      f+1     :     0.006565
      f-1     :     0.016171
      f+2     :     0.010399
      f-2     :     0.012055
      f+3     :     0.005945
      f-3     :     0.005759
  3 H s       :     0.833306  s :     0.833306
      pz      :     0.011056  p :     0.063559
      px      :     0.026015
      py      :     0.026488
  4 H s       :     0.847533  s :     0.847533
      pz      :     0.012010  p :     0.064004
      px      :     0.036034
      py      :     0.015960
  5 H s       :     0.847359  s :     0.847359
      pz      :     0.034991  p :     0.062720
      px      :     0.012665
      py      :     0.015064


                      *****************************
                      * MAYER POPULATION ANALYSIS *
                      *****************************

  NA   - Mulliken gross atomic population
  ZA   - Total nuclear charge
  QA   - Mulliken gross atomic charge
  VA   - Mayer's total valence
  BVA  - Mayer's bonded valence
  FA   - Mayer's free valence

  ATOM       NA         ZA         QA         VA         BVA        FA
  0 O      8.5261     8.0000    -0.5261     2.0932     1.6910     0.4021
  1 H      0.6759     1.0000     0.3241     0.9065     0.8534     0.0531
  2 C      6.0925     6.0000    -0.0925     4.0048     3.7268     0.2779
  3 H      0.8903     1.0000     0.1097     0.9727     0.9258     0.0469
  4 H      0.9076     1.0000     0.0924     0.9704     0.9215     0.0490
  5 H      0.9076     1.0000     0.0924     0.9717     0.9223     0.0494

  Mayer bond orders larger than 0.100000
B(  0-O ,  1-H ) :   0.8459 B(  0-O ,  2-C ) :   0.8755 B(  2-C ,  3-H ) :   0.9473 
B(  2-C ,  4-H ) :   0.9488 B(  2-C ,  5-H ) :   0.9495 


                *******************************************
                * RELAXED MP2 DENSITY POPULATION ANALYSIS *
                *******************************************

------------------------------------------------------------------------------
                           ORCA POPULATION ANALYSIS
------------------------------------------------------------------------------
Input electron density              ... 16meoh.pires.deturi.1meoh.dset-orca.engrad-mp2.def2tzvp_job16.pmp2re
BaseName (.gbw .S,...)              ... 16meoh.pires.deturi.1meoh.dset-orca.engrad-mp2.def2tzvp_job16

                    ********************************
                    * MULLIKEN POPULATION ANALYSIS *
                    ********************************

-----------------------
MULLIKEN ATOMIC CHARGES
-----------------------
   0 O :   -0.488041
   1 H :    0.318878
   2 C :   -0.175313
   3 H :    0.127938
   4 H :    0.108352
   5 H :    0.108186
Sum of atomic charges:   -0.0000000

--------------------------------
MULLIKEN REDUCED ORBITAL CHARGES
--------------------------------
  0 O s       :     3.805221  s :     3.805221
      pz      :     1.625428  p :     4.619452
      px      :     1.658404
      py      :     1.335620
      dz2     :     0.012441  d :     0.059007
      dxz     :     0.010652
      dyz     :     0.012330
      dx2y2   :     0.007859
      dxy     :     0.015726
      f0      :     0.000559  f :     0.004360
      f+1     :     0.000553
      f-1     :     0.000736
      f+2     :     0.000602
      f-2     :     0.000632
      f+3     :     0.000754
      f-3     :     0.000524
  1 H s       :     0.635729  s :     0.635729
      pz      :     0.013130  p :     0.045393
      px      :     0.015837
      py      :     0.016427
  2 C s       :     3.215853  s :     3.215853
      pz      :     0.864919  p :     2.820294
      px      :     1.040868
      py      :     0.914507
      dz2     :     0.038856  d :     0.127242
      dxz     :     0.017368
      dyz     :     0.018865
      dx2y2   :     0.019691
      dxy     :     0.032462
      f0      :     0.001887  f :     0.011924
      f+1     :     0.001116
      f-1     :     0.002788
      f+2     :     0.001486
      f-2     :     0.001917
      f+3     :     0.001265
      f-3     :     0.001465
  3 H s       :     0.848891  s :     0.848891
      pz      :     0.004242  p :     0.023171
      px      :     0.009040
      py      :     0.009889
  4 H s       :     0.869346  s :     0.869346
      pz      :     0.004467  p :     0.022302
      px      :     0.012200
      py      :     0.005634
  5 H s       :     0.870037  s :     0.870037
      pz      :     0.011944  p :     0.021777
      px      :     0.004571
      py      :     0.005263


                     *******************************
                     * LOEWDIN POPULATION ANALYSIS *
                     *******************************

----------------------
LOEWDIN ATOMIC CHARGES
----------------------
   0 O :   -0.099404
   1 H :    0.189144
   2 C :   -0.390593
   3 H :    0.110377
   4 H :    0.094281
   5 H :    0.096194

-------------------------------
LOEWDIN REDUCED ORBITAL CHARGES
-------------------------------
  0 O s       :     3.391774  s :     3.391774
      pz      :     1.622836  p :     4.600850
      px      :     1.628830
      py      :     1.349184
      dz2     :     0.022665  d :     0.099331
      dxz     :     0.014651
      dyz     :     0.021088
      dx2y2   :     0.013535
      dxy     :     0.027392
      f0      :     0.000963  f :     0.007449
      f+1     :     0.000892
      f-1     :     0.001297
      f+2     :     0.001097
      f-2     :     0.001225
      f+3     :     0.001157
      f-3     :     0.000818
  1 H s       :     0.661372  s :     0.661372
      pz      :     0.036181  p :     0.149484
      px      :     0.056553
      py      :     0.056749
  2 C s       :     2.867065  s :     2.867065
      pz      :     0.962498  p :     3.017249
      px      :     1.080423
      py      :     0.974328
      dz2     :     0.147647  d :     0.443179
      dxz     :     0.046311
      dyz     :     0.085436
      dx2y2   :     0.051205
      dxy     :     0.112580
      f0      :     0.007348  f :     0.063100
      f+1     :     0.006492
      f-1     :     0.015842
      f+2     :     0.010194
      f-2     :     0.011865
      f+3     :     0.005790
      f-3     :     0.005570
  3 H s       :     0.825696  s :     0.825696
      pz      :     0.011518  p :     0.063927
      px      :     0.025949
      py      :     0.026459
  4 H s       :     0.840946  s :     0.840946
      pz      :     0.012478  p :     0.064773
      px      :     0.035839
      py      :     0.016456
  5 H s       :     0.840336  s :     0.840336
      pz      :     0.034922  p :     0.063469
      px      :     0.013132
      py      :     0.015415


                      *****************************
                      * MAYER POPULATION ANALYSIS *
                      *****************************

  NA   - Mulliken gross atomic population
  ZA   - Total nuclear charge
  QA   - Mulliken gross atomic charge
  VA   - Mayer's total valence
  BVA  - Mayer's bonded valence
  FA   - Mayer's free valence

  ATOM       NA         ZA         QA         VA         BVA        FA
  0 O      8.4880     8.0000    -0.4880     2.1480     1.7524     0.3956
  1 H      0.6811     1.0000     0.3189     0.9089     0.8557     0.0532
  2 C      6.1753     6.0000    -0.1753     4.0269     3.7512     0.2757
  3 H      0.8721     1.0000     0.1279     0.9644     0.9180     0.0464
  4 H      0.8916     1.0000     0.1084     0.9627     0.9143     0.0484
  5 H      0.8918     1.0000     0.1082     0.9653     0.9165     0.0488

  Mayer bond orders larger than 0.100000
B(  0-O ,  1-H ) :   0.8461 B(  0-O ,  2-C ) :   0.9275 B(  2-C ,  3-H ) :   0.9393 
B(  2-C ,  4-H ) :   0.9381 B(  2-C ,  5-H ) :   0.9392 


----------------------------------
MP2 DERIVATIVE INTEGRAL GENERATION
----------------------------------


Input Wavefunction Amplitudes       ... 16meoh.pires.deturi.1meoh.dset-orca.engrad-mp2.def2tzvp_job16.mp2tsaa.tmp
Input Correlated Electron Density   ... 16meoh.pires.deturi.1meoh.dset-orca.engrad-mp2.def2tzvp_job16.pmp2re
Input Energy Weighted Density       ... 16meoh.pires.deturi.1meoh.dset-orca.engrad-mp2.def2tzvp_job16.wmp2.tmp
Input SCF Electron Density          ... 16meoh.pires.deturi.1meoh.dset-orca.engrad-mp2.def2tzvp_job16.scfp

One-Electron Terms    ...
                        ... One-Electron Terms done
Prescreening matrices              ... done

Batch handling in the gradient evaluation:
Memory available                      ... 8000.0 MB
Memory per occupied orbital in Q2     ...    0.4 MB
Memory per occupied orbital in Q3     ...    0.0 MB
Total memory requirement per |i>      ...    0.4 MB
Max. Number of orbitals possible      ...  18729
Number of orbitals treated per batch  ...      7
Number of batches to be done          ...      1
Batch   0: i=    2 ...     8

---------------------------------------
MP2 TOTAL ENERGY:     -115.506359786 Eh
---------------------------------------

The final MP2 gradient
  0:  -0.01613853  -0.02720308   0.00237652
  1:   0.01617356   0.01704559  -0.00730238
  2:   0.00177723   0.00425664   0.00459331
  3:  -0.00454739  -0.00040998   0.00361036
  4:   0.00174738   0.00158816   0.00228026
  5:   0.00098776   0.00472268  -0.00555807

-----------------------------------
NORM OF THE MP2 GRADIENT:  0.041866
-----------------------------------

-------------------------   --------------------
FINAL SINGLE POINT ENERGY      -115.506359786423
-------------------------   --------------------


                            ***************************************
                            *     ORCA property calculations      *
                            ***************************************

                                    ---------------------
                                    Active property flags
                                    ---------------------
   (+) Dipole Moment


------------------------------------------------------------------------------
                       ORCA ELECTRIC PROPERTIES CALCULATION
------------------------------------------------------------------------------

Dipole Moment Calculation                       ... on
Quadrupole Moment Calculation                   ... off
Polarizability Calculation                      ... off
GBWName                                         ... 16meoh.pires.deturi.1meoh.dset-orca.engrad-mp2.def2tzvp_job16.gbw
Electron density file                           ... 16meoh.pires.deturi.1meoh.dset-orca.engrad-mp2.def2tzvp_job16.scfp
The origin for moment calculation is the CENTER OF MASS  = ( 6.095580, -8.520630  3.235710)

-------------
DIPOLE MOMENT
-------------
                                X             Y             Z
Electronic contribution:     -0.58665       1.04828       1.25935
Nuclear contribution   :      1.12771      -0.94058      -1.75536
                        -----------------------------------------
Total Dipole Moment    :      0.54106       0.10771      -0.49600
                        -----------------------------------------
Magnitude (a.u.)       :      0.74187
Magnitude (Debye)      :      1.88567



--------------------
Rotational spectrum 
--------------------
 
Rotational constants in cm-1:     4.127712     0.840660     0.806483 
Rotational constants in MHz : 123745.699130 25202.339874 24177.744816 

 Dipole components along the rotational axes: 
x,y,z [a.u.] :     0.399694     0.624982     0.002626 
x,y,z [Debye]:     1.015942     1.588578     0.006676 

 

                         *** MP2 UNRELAXED DENSITY ***

------------------------------------------------------------------------------
                       ORCA ELECTRIC PROPERTIES CALCULATION
------------------------------------------------------------------------------

Dipole Moment Calculation                       ... on
Quadrupole Moment Calculation                   ... off
Polarizability Calculation                      ... off
GBWName                                         ... 16meoh.pires.deturi.1meoh.dset-orca.engrad-mp2.def2tzvp_job16.gbw
Electron density file                           ... 16meoh.pires.deturi.1meoh.dset-orca.engrad-mp2.def2tzvp_job16.pmp2ur
The origin for moment calculation is the CENTER OF MASS  = ( 6.095580, -8.520630  3.235710)

-------------
DIPOLE MOMENT
-------------
                                X             Y             Z
Electronic contribution:     -0.59749       1.04965       1.27123
Nuclear contribution   :      1.12771      -0.94058      -1.75536
                        -----------------------------------------
Total Dipole Moment    :      0.53022       0.10907      -0.48412
                        -----------------------------------------
Magnitude (a.u.)       :      0.72623
Magnitude (Debye)      :      1.84592



--------------------
Rotational spectrum 
--------------------
 
Rotational constants in cm-1:     4.127712     0.840660     0.806483 
Rotational constants in MHz : 123745.699130 25202.339874 24177.744816 

 Dipole components along the rotational axes: 
x,y,z [a.u.] :     0.387943     0.613920     0.002429 
x,y,z [Debye]:     0.986072     1.560460     0.006174 

 

                           *** MP2 RELAXED DENSITY ***

------------------------------------------------------------------------------
                       ORCA ELECTRIC PROPERTIES CALCULATION
------------------------------------------------------------------------------

Dipole Moment Calculation                       ... on
Quadrupole Moment Calculation                   ... off
Polarizability Calculation                      ... off
GBWName                                         ... 16meoh.pires.deturi.1meoh.dset-orca.engrad-mp2.def2tzvp_job16.gbw
Electron density file                           ... 16meoh.pires.deturi.1meoh.dset-orca.engrad-mp2.def2tzvp_job16.pmp2re
The origin for moment calculation is the CENTER OF MASS  = ( 6.095580, -8.520630  3.235710)

-------------
DIPOLE MOMENT
-------------
                                X             Y             Z
Electronic contribution:     -0.61216       1.05654       1.28820
Nuclear contribution   :      1.12771      -0.94058      -1.75536
                        -----------------------------------------
Total Dipole Moment    :      0.51555       0.11596      -0.46716
                        -----------------------------------------
Magnitude (a.u.)       :      0.70532
Magnitude (Debye)      :      1.79277



--------------------
Rotational spectrum 
--------------------
 
Rotational constants in cm-1:     4.127712     0.840660     0.806483 
Rotational constants in MHz : 123745.699130 25202.339874 24177.744816 

 Dipole components along the rotational axes: 
x,y,z [a.u.] :     0.367967     0.601723     0.000743 
x,y,z [Debye]:     0.935297     1.529458     0.001889 

 

Timings for individual modules:

Sum of individual times         ...        6.568 sec (=   0.109 min)
GTO integral calculation        ...        0.840 sec (=   0.014 min)  12.8 %
SCF iterations                  ...        2.922 sec (=   0.049 min)  44.5 %
MP2 module                      ...        2.806 sec (=   0.047 min)  42.7 %



                             ****ORCA TERMINATED NORMALLY****
TOTAL RUN TIME: 0 days 0 hours 2 minutes 59 seconds 211 msec
