
                                 *****************
                                 * O   R   C   A *
                                 *****************

           --- An Ab Initio, DFT and Semiempirical electronic structure package ---

                  #######################################################
                  #                        -***-                        #
                  #          Department of theory and spectroscopy      #
                  #               Directorship: Frank Neese             #
                  #        Max Planck Institute fuer Kohlenforschung    #
                  #                Kaiser Wilhelm Platz 1               #
                  #                 D-45470 Muelheim/Ruhr               #
                  #                      Germany                        #
                  #                                                     #
                  #                  All rights reserved                #
                  #                        -***-                        #
                  #######################################################


                         Program Version 4.2.0 -  RELEASE  -


 With contributions from (in alphabetic order):
   Daniel Aravena         : Magnetic Suceptibility
   Michael Atanasov       : Ab Initio Ligand Field Theory (pilot matlab implementation)
   Alexander A. Auer      : GIAO ZORA, VPT2
   Ute Becker             : Parallelization
   Giovanni Bistoni       : ED, misc. LED, open-shell LED, HFLED
   Martin Brehm           : Molecular dynamics
   Dmytro Bykov           : SCF Hessian
   Vijay G. Chilkuri      : MRCI spin determinant printing, contributions to CSF-ICE
   Dipayan Datta          : RHF DLPNO-CCSD density
   Achintya Kumar Dutta   : EOM-CC, STEOM-CC
   Dmitry Ganyushin       : Spin-Orbit,Spin-Spin,Magnetic field MRCI
   Miquel Garcia          : C-PCM Hessian, Gaussian charge scheme
   Yang Guo               : DLPNO-NEVPT2, CIM, IAO-localization
   Andreas Hansen         : Spin unrestricted coupled pair/coupled cluster methods
   Benjamin Helmich-Paris : CASSCF linear response (MC-RPA)
   Lee Huntington         : MR-EOM, pCC
   Robert Izsak           : Overlap fitted RIJCOSX, COSX-SCS-MP3, EOM
   Christian Kollmar      : KDIIS, OOCD, Brueckner-CCSD(T), CCSD density
   Simone Kossmann        : Meta GGA functionals, TD-DFT gradient, OOMP2, MP2 Hessian
   Martin Krupicka        : AUTO-CI
   Lucas Lang             : DCDCAS
   Dagmar Lenk            : GEPOL surface, SMD
   Dimitrios Liakos       : Extrapolation schemes; Compound Job, initial MDCI parallelization
   Dimitrios Manganas     : Further ROCIS development; embedding schemes
   Dimitrios Pantazis     : SARC Basis sets
   Taras Petrenko         : DFT Hessian,TD-DFT gradient, ASA, ECA, R-Raman, ABS, FL, XAS/XES, NRVS
   Peter Pinski           : DLPNO-MP2, DLPNO-MP2 Gradient
   Christoph Reimann      : Effective Core Potentials
   Marius Retegan         : Local ZFS, SOC
   Christoph Riplinger    : Optimizer, TS searches, QM/MM, DLPNO-CCSD(T), (RO)-DLPNO pert. Triples
   Tobias Risthaus        : Range-separated hybrids, TD-DFT gradient, RPA, STAB
   Michael Roemelt        : Original ROCIS implementation
   Masaaki Saitow         : Open-shell DLPNO-CCSD energy and density
   Barbara Sandhoefer     : DKH picture change effects
   Avijit Sen             : IP-ROCIS
   Kantharuban Sivalingam : CASSCF convergence, NEVPT2, FIC-MRCI
   Bernardo de Souza      : ESD, SOC TD-DFT
   Georgi Stoychev        : AutoAux, RI-MP2 NMR
   Willem Van den Heuvel  : Paramagnetic NMR
   Boris Wezisla          : Elementary symmetry handling
   Frank Wennmohs         : Technical directorship


 We gratefully acknowledge several colleagues who have allowed us to
 interface, adapt or use parts of their codes:
   Stefan Grimme, W. Hujo, H. Kruse,             : VdW corrections, initial TS optimization,
                  C. Bannwarth                     DFT functionals, gCP, sTDA/sTD-DF
   Ed Valeev, F. Pavosevic, A. Kumar             : LibInt (2-el integral package), F12 methods
   Garnet Chan, S. Sharma, J. Yang, R. Olivares  : DMRG
   Ulf Ekstrom                                   : XCFun DFT Library
   Mihaly Kallay                                 : mrcc  (arbitrary order and MRCC methods)
   Andreas Klamt, Michael Diedenhofen            : otool_cosmo (COSMO solvation model)
   Jiri Pittner, Ondrej Demel                    : Mk-CCSD
   Frank Weinhold                                : gennbo (NPA and NBO analysis)
   Christopher J. Cramer and Donald G. Truhlar   : smd solvation model
   Lars Goerigk                                  : TD-DFT with DH, B97 family of functionals
   V. Asgeirsson, H. Jonsson                     : NEB implementation
   FAccTs GmbH                                   : IRC, NEB, NEB-TS, Multilevel, MM, QM/MM, CI optimization
   S Lehtola, MJT Oliveira, MAL Marques          : LibXC Library


 Your calculation uses the libint2 library for the computation of 2-el integrals
 For citations please refer to: http://libint.valeyev.net

 Your ORCA version has been built with support for libXC version: 4.2.3
 For citations please refer to: https://tddft.org/programs/libxc/

 This ORCA versions uses:
   CBLAS   interface :  Fast vector & matrix operations
   LAPACKE interface :  Fast linear algebra routines
   SCALAPACK package :  Parallel linear algebra routines


----- Orbital basis set information -----
Your calculation utilizes the basis: def2-TZVP
   F. Weigend and R. Ahlrichs, Phys. Chem. Chem. Phys. 7, 3297 (2005).

================================================================================
                                        WARNINGS
                       Please study these warnings very carefully!
================================================================================


WARNING: The frozen-core approximation for MP2-gradient calculations is turned on by default.

INFO   : the flag for use of LIBINT has been found!

----- Orbital basis set information -----
Your calculation utilizes the basis: def2-TZVP
   F. Weigend and R. Ahlrichs, Phys. Chem. Chem. Phys. 7, 3297 (2005).

================================================================================
                                        WARNINGS
                       Please study these warnings very carefully!
================================================================================


WARNING: The frozen-core approximation for MP2-gradient calculations is turned on by default.

INFO   : the flag for use of LIBINT has been found!

----- Orbital basis set information -----
Your calculation utilizes the basis: def2-TZVP
   F. Weigend and R. Ahlrichs, Phys. Chem. Chem. Phys. 7, 3297 (2005).

================================================================================
                                        WARNINGS
                       Please study these warnings very carefully!
================================================================================


WARNING: The frozen-core approximation for MP2-gradient calculations is turned on by default.

INFO   : the flag for use of LIBINT has been found!

----- Orbital basis set information -----
Your calculation utilizes the basis: def2-TZVP
   F. Weigend and R. Ahlrichs, Phys. Chem. Chem. Phys. 7, 3297 (2005).

================================================================================
                                        WARNINGS
                       Please study these warnings very carefully!
================================================================================


WARNING: The frozen-core approximation for MP2-gradient calculations is turned on by default.

INFO   : the flag for use of LIBINT has been found!

----- Orbital basis set information -----
Your calculation utilizes the basis: def2-TZVP
   F. Weigend and R. Ahlrichs, Phys. Chem. Chem. Phys. 7, 3297 (2005).

================================================================================
                                        WARNINGS
                       Please study these warnings very carefully!
================================================================================


WARNING: The frozen-core approximation for MP2-gradient calculations is turned on by default.

INFO   : the flag for use of LIBINT has been found!

----- Orbital basis set information -----
Your calculation utilizes the basis: def2-TZVP
   F. Weigend and R. Ahlrichs, Phys. Chem. Chem. Phys. 7, 3297 (2005).

================================================================================
                                        WARNINGS
                       Please study these warnings very carefully!
================================================================================


WARNING: The frozen-core approximation for MP2-gradient calculations is turned on by default.

INFO   : the flag for use of LIBINT has been found!

----- Orbital basis set information -----
Your calculation utilizes the basis: def2-TZVP
   F. Weigend and R. Ahlrichs, Phys. Chem. Chem. Phys. 7, 3297 (2005).

================================================================================
                                        WARNINGS
                       Please study these warnings very carefully!
================================================================================


WARNING: The frozen-core approximation for MP2-gradient calculations is turned on by default.

INFO   : the flag for use of LIBINT has been found!

----- Orbital basis set information -----
Your calculation utilizes the basis: def2-TZVP
   F. Weigend and R. Ahlrichs, Phys. Chem. Chem. Phys. 7, 3297 (2005).

================================================================================
                                        WARNINGS
                       Please study these warnings very carefully!
================================================================================


WARNING: The frozen-core approximation for MP2-gradient calculations is turned on by default.

INFO   : the flag for use of LIBINT has been found!

----- Orbital basis set information -----
Your calculation utilizes the basis: def2-TZVP
   F. Weigend and R. Ahlrichs, Phys. Chem. Chem. Phys. 7, 3297 (2005).

================================================================================
                                        WARNINGS
                       Please study these warnings very carefully!
================================================================================


WARNING: The frozen-core approximation for MP2-gradient calculations is turned on by default.

INFO   : the flag for use of LIBINT has been found!

----- Orbital basis set information -----
Your calculation utilizes the basis: def2-TZVP
   F. Weigend and R. Ahlrichs, Phys. Chem. Chem. Phys. 7, 3297 (2005).

================================================================================
                                        WARNINGS
                       Please study these warnings very carefully!
================================================================================


WARNING: The frozen-core approximation for MP2-gradient calculations is turned on by default.

INFO   : the flag for use of LIBINT has been found!

----- Orbital basis set information -----
Your calculation utilizes the basis: def2-TZVP
   F. Weigend and R. Ahlrichs, Phys. Chem. Chem. Phys. 7, 3297 (2005).

================================================================================
                                        WARNINGS
                       Please study these warnings very carefully!
================================================================================


WARNING: The frozen-core approximation for MP2-gradient calculations is turned on by default.

INFO   : the flag for use of LIBINT has been found!

----- Orbital basis set information -----
Your calculation utilizes the basis: def2-TZVP
   F. Weigend and R. Ahlrichs, Phys. Chem. Chem. Phys. 7, 3297 (2005).

================================================================================
                                        WARNINGS
                       Please study these warnings very carefully!
================================================================================


WARNING: The frozen-core approximation for MP2-gradient calculations is turned on by default.

INFO   : the flag for use of LIBINT has been found!

----- Orbital basis set information -----
Your calculation utilizes the basis: def2-TZVP
   F. Weigend and R. Ahlrichs, Phys. Chem. Chem. Phys. 7, 3297 (2005).

================================================================================
                                        WARNINGS
                       Please study these warnings very carefully!
================================================================================


WARNING: The frozen-core approximation for MP2-gradient calculations is turned on by default.

INFO   : the flag for use of LIBINT has been found!

----- Orbital basis set information -----
Your calculation utilizes the basis: def2-TZVP
   F. Weigend and R. Ahlrichs, Phys. Chem. Chem. Phys. 7, 3297 (2005).

================================================================================
                                        WARNINGS
                       Please study these warnings very carefully!
================================================================================


WARNING: The frozen-core approximation for MP2-gradient calculations is turned on by default.

INFO   : the flag for use of LIBINT has been found!

----- Orbital basis set information -----
Your calculation utilizes the basis: def2-TZVP
   F. Weigend and R. Ahlrichs, Phys. Chem. Chem. Phys. 7, 3297 (2005).

================================================================================
                                        WARNINGS
                       Please study these warnings very carefully!
================================================================================


WARNING: The frozen-core approximation for MP2-gradient calculations is turned on by default.

INFO   : the flag for use of LIBINT has been found!

----- Orbital basis set information -----
Your calculation utilizes the basis: def2-TZVP
   F. Weigend and R. Ahlrichs, Phys. Chem. Chem. Phys. 7, 3297 (2005).

================================================================================
                                        WARNINGS
                       Please study these warnings very carefully!
================================================================================


WARNING: The frozen-core approximation for MP2-gradient calculations is turned on by default.

INFO   : the flag for use of LIBINT has been found!

----- Orbital basis set information -----
Your calculation utilizes the basis: def2-TZVP
   F. Weigend and R. Ahlrichs, Phys. Chem. Chem. Phys. 7, 3297 (2005).

================================================================================
                                        WARNINGS
                       Please study these warnings very carefully!
================================================================================


WARNING: The frozen-core approximation for MP2-gradient calculations is turned on by default.

INFO   : the flag for use of LIBINT has been found!

----- Orbital basis set information -----
Your calculation utilizes the basis: def2-TZVP
   F. Weigend and R. Ahlrichs, Phys. Chem. Chem. Phys. 7, 3297 (2005).

================================================================================
                                        WARNINGS
                       Please study these warnings very carefully!
================================================================================


WARNING: The frozen-core approximation for MP2-gradient calculations is turned on by default.

INFO   : the flag for use of LIBINT has been found!

================================================================================
                                       INPUT FILE
================================================================================
NAME = 4h2o.temelso.etal.dset.2h2o.dset-orca.engrad-mp2.def2tzvp.inp
|  1> # 4h2o.temelso.etal.dset.2h2o.dset-orca.engrad-mp2.def2tzvp
|  2> ! MP2 def2-TZVP EnGrad TightSCF FrozenCore
|  3> 
|  4> %pal
|  5>     nprocs 12
|  6> end
|  7> 
|  8> %maxcore 8000
|  9> 
| 10> %scf
| 11>     ConvForced true
| 12> end
| 13> 
| 14> *xyz 0 1
| 15> O  -1.325577436  -0.018444737  -0.171803356
| 16> H  -1.743777436  -0.233044737  -1.014603356
| 17> H  -1.488777436   0.945055263  -0.048303356
| 18> O   1.399822564   0.019955263   0.183596644
| 19> H   0.442222564  -0.118844737  -0.001103356
| 20> H   1.611722564  -0.617144737   0.876796644
| 21> *
| 22> 
| 23> 
| 24> $new_job
| 25> 
| 26> # 4h2o.temelso.etal.dset.2h2o.dset-orca.engrad-mp2.def2tzvp
| 27> ! MP2 def2-TZVP EnGrad TightSCF FrozenCore
| 28> 
| 29> %pal
| 30>     nprocs 12
| 31> end
| 32> 
| 33> %maxcore 8000
| 34> 
| 35> %scf
| 36>     ConvForced true
| 37> end
| 38> 
| 39> *xyz 0 1
| 40> O  -1.320717629  -1.380843136  -0.355459903
| 41> H  -1.738917629  -1.595443136  -1.198259903
| 42> H  -1.483917629  -0.417343136  -0.231959903
| 43> O   1.308482371   1.370056864   0.433940097
| 44> H   1.466682371   0.402156864   0.341840097
| 45> H   1.950382371   1.781856864  -0.157459903
| 46> *
| 47> 
| 48> 
| 49> $new_job
| 50> 
| 51> # 4h2o.temelso.etal.dset.2h2o.dset-orca.engrad-mp2.def2tzvp
| 52> ! MP2 def2-TZVP EnGrad TightSCF FrozenCore
| 53> 
| 54> %pal
| 55>     nprocs 12
| 56> end
| 57> 
| 58> %maxcore 8000
| 59> 
| 60> %scf
| 61>     ConvForced true
| 62> end
| 63> 
| 64> *xyz 0 1
| 65> O   0.038424512  -1.403390050  -0.149950816
| 66> H  -0.379775488  -1.617990050  -0.992750816
| 67> H  -0.124775488  -0.439890050  -0.026450816
| 68> O  -0.035375488   1.328909950   0.140149184
| 69> H   0.927024512   1.471909950   0.293849184
| 70> H  -0.470875488   1.768309950   0.880949184
| 71> *
| 72> 
| 73> 
| 74> $new_job
| 75> 
| 76> # 4h2o.temelso.etal.dset.2h2o.dset-orca.engrad-mp2.def2tzvp
| 77> ! MP2 def2-TZVP EnGrad TightSCF FrozenCore
| 78> 
| 79> %pal
| 80>     nprocs 12
| 81> end
| 82> 
| 83> %maxcore 8000
| 84> 
| 85> %scf
| 86>     ConvForced true
| 87> end
| 88> 
| 89> *xyz 0 1
| 90> O   0.046578285  -1.318990369  -0.212104778
| 91> H  -0.911021715  -1.457790369  -0.396804778
| 92> H   0.258478285  -1.956090369   0.481095222
| 93> O  -0.049621715   1.393509631   0.221895222
| 94> H   0.108578285   0.425609631   0.129795222
| 95> H   0.592278285   1.805309631  -0.369504778
| 96> *
| 97> 
| 98> 
| 99> $new_job
|100> 
|101> # 4h2o.temelso.etal.dset.2h2o.dset-orca.engrad-mp2.def2tzvp
|102> ! MP2 def2-TZVP EnGrad TightSCF FrozenCore
|103> 
|104> %pal
|105>     nprocs 12
|106> end
|107> 
|108> %maxcore 8000
|109> 
|110> %scf
|111>     ConvForced true
|112> end
|113> 
|114> *xyz 0 1
|115> O   1.405720426  -1.341537283  -0.006595692
|116> H   0.448120426  -1.480337283  -0.191295692
|117> H   1.617620426  -1.978637283   0.686604308
|118> O  -1.393479574   1.352362717  -0.071895692
|119> H  -0.431079574   1.495362717   0.081804308
|120> H  -1.828979574   1.791762717   0.668904308
|121> *
|122> 
|123> 
|124> $new_job
|125> 
|126> # 4h2o.temelso.etal.dset.2h2o.dset-orca.engrad-mp2.def2tzvp
|127> ! MP2 def2-TZVP EnGrad TightSCF FrozenCore
|128> 
|129> %pal
|130>     nprocs 12
|131> end
|132> 
|133> %maxcore 8000
|134> 
|135> %scf
|136>     ConvForced true
|137> end
|138> 
|139> *xyz 0 1
|140> O   1.314380233   0.008564318   0.243747761
|141> H   1.472580233  -0.959335682   0.151647761
|142> H   1.956280233   0.420364318  -0.347652239
|143> O  -1.388619767  -0.010035682  -0.255552239
|144> H  -0.426219767   0.132964318  -0.101852239
|145> H  -1.824119767   0.429364318   0.485247761
|146> *
|147> 
|148> 
|149> $new_job
|150> 
|151> # 4h2o.temelso.etal.dset.2h2o.dset-orca.engrad-mp2.def2tzvp
|152> ! MP2 def2-TZVP EnGrad TightSCF FrozenCore
|153> 
|154> %pal
|155>     nprocs 12
|156> end
|157> 
|158> %maxcore 8000
|159> 
|160> %scf
|161>     ConvForced true
|162> end
|163> 
|164> *xyz 0 1
|165> O   0.036144320  -1.293436216  -0.342591114
|166> H   0.293244320  -1.960136216   0.305908886
|167> H  -0.925355680  -1.440636216  -0.493591114
|168> O  -0.043355680   1.364363784   0.354708886
|169> H   0.632944320   1.854963784  -0.127691114
|170> H   0.113644320   0.419863784   0.123008886
|171> *
|172> 
|173> 
|174> $new_job
|175> 
|176> # 4h2o.temelso.etal.dset.2h2o.dset-orca.engrad-mp2.def2tzvp
|177> ! MP2 def2-TZVP EnGrad TightSCF FrozenCore
|178> 
|179> %pal
|180>     nprocs 12
|181> end
|182> 
|183> %maxcore 8000
|184> 
|185> %scf
|186>     ConvForced true
|187> end
|188> 
|189> *xyz 0 1
|190> O   1.398686014  -1.347836014  -0.120344405
|191> H   1.655786014  -2.014536014   0.528155595
|192> H   0.437186014  -1.495036014  -0.271344405
|193> O  -1.398713986   1.347863986   0.120355595
|194> H  -0.437213986   1.495063986   0.271755595
|195> H  -1.655313986   2.014063986  -0.528744405
|196> *
|197> 
|198> 
|199> $new_job
|200> 
|201> # 4h2o.temelso.etal.dset.2h2o.dset-orca.engrad-mp2.def2tzvp
|202> ! MP2 def2-TZVP EnGrad TightSCF FrozenCore
|203> 
|204> %pal
|205>     nprocs 12
|206> end
|207> 
|208> %maxcore 8000
|209> 
|210> %scf
|211>     ConvForced true
|212> end
|213> 
|214> *xyz 0 1
|215> O   1.402052425  -0.008732627   0.193797093
|216> H   1.659152425  -0.675432627   0.842297093
|217> H   0.440552425  -0.155932627   0.042797093
|218> O  -1.316047575   0.028867373  -0.261602907
|219> H  -1.472947575   0.973367373  -0.030202907
|220> H  -1.992047575  -0.461632627   0.221497093
|221> *
|222> 
|223> 
|224> $new_job
|225> 
|226> # 4h2o.temelso.etal.dset.2h2o.dset-orca.engrad-mp2.def2tzvp
|227> ! MP2 def2-TZVP EnGrad TightSCF FrozenCore
|228> 
|229> %pal
|230>     nprocs 12
|231> end
|232> 
|233> %maxcore 8000
|234> 
|235> %scf
|236>     ConvForced true
|237> end
|238> 
|239> *xyz 0 1
|240> O   1.315922400  -0.029006184   0.262197313
|241> H   1.992222400   0.461593816  -0.220202687
|242> H   1.472922400  -0.973506184   0.030497313
|243> O  -1.401977600   0.008893816  -0.194402687
|244> H  -0.440477600   0.156093816  -0.043002687
|245> H  -1.658577600   0.675093816  -0.843502687
|246> *
|247> 
|248> 
|249> $new_job
|250> 
|251> # 4h2o.temelso.etal.dset.2h2o.dset-orca.engrad-mp2.def2tzvp
|252> ! MP2 def2-TZVP EnGrad TightSCF FrozenCore
|253> 
|254> %pal
|255>     nprocs 12
|256> end
|257> 
|258> %maxcore 8000
|259> 
|260> %scf
|261>     ConvForced true
|262> end
|263> 
|264> *xyz 0 1
|265> O   1.319288811   1.310097203   0.576338811
|266> H   1.995588811   1.800697203   0.093938811
|267> H   1.476288811   0.365597203   0.344638811
|268> O  -1.319311189  -1.310102797  -0.576361189
|269> H  -1.476211189  -0.365602797  -0.344961189
|270> H  -1.995311189  -1.800602797  -0.093261189
|271> *
|272> 
|273> 
|274> $new_job
|275> 
|276> # 4h2o.temelso.etal.dset.2h2o.dset-orca.engrad-mp2.def2tzvp
|277> ! MP2 def2-TZVP EnGrad TightSCF FrozenCore
|278> 
|279> %pal
|280>     nprocs 12
|281> end
|282> 
|283> %maxcore 8000
|284> 
|285> %scf
|286>     ConvForced true
|287> end
|288> 
|289> *xyz 0 1
|290> O  -0.036069495   1.293597406   0.341985520
|291> H   0.925430505   1.440797406   0.493385520
|292> H  -0.292669495   1.959797406  -0.307114480
|293> O   0.043230505  -1.364502594  -0.354114480
|294> H  -0.113669495  -0.420002594  -0.122714480
|295> H  -0.632769495  -1.855002594   0.128985520
|296> *
|297> 
|298> 
|299> $new_job
|300> 
|301> # 4h2o.temelso.etal.dset.2h2o.dset-orca.engrad-mp2.def2tzvp
|302> ! MP2 def2-TZVP EnGrad TightSCF FrozenCore
|303> 
|304> %pal
|305>     nprocs 12
|306> end
|307> 
|308> %maxcore 8000
|309> 
|310> %scf
|311>     ConvForced true
|312> end
|313> 
|314> *xyz 0 1
|315> O   1.663639687  -0.265031500  -0.064958127
|316> H   1.371039687   0.478068500  -0.628358127
|317> H   2.611439687  -0.137331500   0.059341873
|318> O  -1.736760313   0.262368500   0.057841873
|319> H  -1.437660313   0.284768500   0.976341873
|320> H  -1.384060313  -0.583231500  -0.294358127
|321> *
|322> 
|323> 
|324> $new_job
|325> 
|326> # 4h2o.temelso.etal.dset.2h2o.dset-orca.engrad-mp2.def2tzvp
|327> ! MP2 def2-TZVP EnGrad TightSCF FrozenCore
|328> 
|329> %pal
|330>     nprocs 12
|331> end
|332> 
|333> %maxcore 8000
|334> 
|335> %scf
|336>     ConvForced true
|337> end
|338> 
|339> *xyz 0 1
|340> O   0.807451537  -0.846720309   0.823044510
|341> H   0.514851537  -0.103620309   0.259644510
|342> H   1.755251537  -0.719020309   0.947344510
|343> O  -0.795848463   0.756379691  -0.814255490
|344> H  -1.537448463   0.609679691  -0.183155490
|345> H  -0.916848463   1.647079691  -1.163355490
|346> *
|347> 
|348> 
|349> $new_job
|350> 
|351> # 4h2o.temelso.etal.dset.2h2o.dset-orca.engrad-mp2.def2tzvp
|352> ! MP2 def2-TZVP EnGrad TightSCF FrozenCore
|353> 
|354> %pal
|355>     nprocs 12
|356> end
|357> 
|358> %maxcore 8000
|359> 
|360> %scf
|361>     ConvForced true
|362> end
|363> 
|364> *xyz 0 1
|365> O   0.962971347   0.656749926   0.732500800
|366> H   0.670371347   1.399849926   0.169100800
|367> H   1.910771347   0.784449926   0.856800800
|368> O  -1.049328653  -0.750850074  -0.694799200
|369> H  -1.014828653  -0.068250074  -1.382499200
|370> H  -0.195428653  -0.622250074  -0.241899200
|371> *
|372> 
|373> 
|374> $new_job
|375> 
|376> # 4h2o.temelso.etal.dset.2h2o.dset-orca.engrad-mp2.def2tzvp
|377> ! MP2 def2-TZVP EnGrad TightSCF FrozenCore
|378> 
|379> %pal
|380>     nprocs 12
|381> end
|382> 
|383> %maxcore 8000
|384> 
|385> %scf
|386>     ConvForced true
|387> end
|388> 
|389> *xyz 0 1
|390> O  -0.892653356  -0.535634563   0.856320762
|391> H  -0.593553356  -0.513234563   1.774820762
|392> H  -0.539953356  -1.381234563   0.504120762
|393> O   0.904446644   0.540065437  -0.903779238
|394> H   0.162846644   0.393365437  -0.272679238
|395> H   0.783446644   1.430765437  -1.252879238
|396> *
|397> 
|398> 
|399> $new_job
|400> 
|401> # 4h2o.temelso.etal.dset.2h2o.dset-orca.engrad-mp2.def2tzvp
|402> ! MP2 def2-TZVP EnGrad TightSCF FrozenCore
|403> 
|404> %pal
|405>     nprocs 12
|406> end
|407> 
|408> %maxcore 8000
|409> 
|410> %scf
|411>     ConvForced true
|412> end
|413> 
|414> *xyz 0 1
|415> O  -0.737133546   0.967835672   0.765777051
|416> H  -0.438033546   0.990235672   1.684277051
|417> H  -0.384433546   0.122235672   0.413577051
|418> O   0.650966454  -0.967164328  -0.784322949
|419> H   0.685466454  -0.284564328  -1.472022949
|420> H   1.504866454  -0.838564328  -0.331422949
|421> *
|422> 
|423> 
|424> $new_job
|425> 
|426> # 4h2o.temelso.etal.dset.2h2o.dset-orca.engrad-mp2.def2tzvp
|427> ! MP2 def2-TZVP EnGrad TightSCF FrozenCore
|428> 
|429> %pal
|430>     nprocs 12
|431> end
|432> 
|433> %maxcore 8000
|434> 
|435> %scf
|436>     ConvForced true
|437> end
|438> 
|439> *xyz 0 1
|440> O   0.203778304   1.461846864  -0.106320311
|441> H  -0.537821696   1.315146864   0.524779689
|442> H   0.082778304   2.352546864  -0.455420311
|443> O  -0.205221696  -1.548853136   0.103679689
|444> H  -0.170721696  -0.866253136  -0.584020311
|445> H   0.648678304  -1.420253136   0.556579689
|446> *
|447> 
|448>                          ****END OF INPUT****
================================================================================


                 $$$$$$$$$$$$$$$$$$$$$$$$$$$$$$$$$$$$$$$$$$$$$$ 
                 $ THERE ARE 18 JOBS TO BE PROCESSED THIS RUN $
                 $$$$$$$$$$$$$$$$$$$$$$$$$$$$$$$$$$$$$$$$$$$$$$ 




                 $$$$$$$$$$$$$$$$  JOB NUMBER  1 $$$$$$$$$$$$$$


                     *******************************
                     * Energy+Gradient Calculation *
                     *******************************

---------------------------------
CARTESIAN COORDINATES (ANGSTROEM)
---------------------------------
  O     -1.325577   -0.018445   -0.171803
  H     -1.743777   -0.233045   -1.014603
  H     -1.488777    0.945055   -0.048303
  O      1.399823    0.019955    0.183597
  H      0.442223   -0.118845   -0.001103
  H      1.611723   -0.617145    0.876797

----------------------------
CARTESIAN COORDINATES (A.U.)
----------------------------
  NO LB      ZA    FRAG     MASS         X           Y           Z
   0 O     8.0000    0    15.999   -2.504978   -0.034856   -0.324661
   1 H     1.0000    0     1.008   -3.295262   -0.440391   -1.917322
   2 H     1.0000    0     1.008   -2.813382    1.785896   -0.091280
   3 O     8.0000    0    15.999    2.645281    0.037710    0.346947
   4 H     1.0000    0     1.008    0.835680   -0.224584   -0.002085
   5 H     1.0000    0     1.008    3.045714   -1.166235    1.656906

--------------------------------
INTERNAL COORDINATES (ANGSTROEM)
--------------------------------
 O      0   0   0     0.000000000000     0.00000000     0.00000000
 H      1   0   0     0.965016186393     0.00000000     0.00000000
 H      1   2   0     0.984996822330   104.78701950     0.00000000
 O      1   2   3     2.748743145512   123.07303403   250.25798596
 H      4   1   2     0.985077301535     8.08435971   310.20628916
 H      4   1   2     0.965051428681   107.53929957   239.02515673

---------------------------
INTERNAL COORDINATES (A.U.)
---------------------------
 O      0   0   0     0.000000000000     0.00000000     0.00000000
 H      1   0   0     1.823616307083     0.00000000     0.00000000
 H      1   2   0     1.861374236986   104.78701950     0.00000000
 O      1   2   3     5.194371757511   123.07303403   250.25798596
 H      4   1   2     1.861526320644     8.08435971   310.20628916
 H      4   1   2     1.823682905357   107.53929957   239.02515673

---------------------
BASIS SET INFORMATION
---------------------
There are 2 groups of distinct atoms

 Group   1 Type O   : 11s6p2d1f contracted to 5s3p2d1f pattern {62111/411/11/1}
 Group   2 Type H   : 5s1p contracted to 3s1p pattern {311/1}

Atom   0O    basis set group =>   1
Atom   1H    basis set group =>   2
Atom   2H    basis set group =>   2
Atom   3O    basis set group =>   1
Atom   4H    basis set group =>   2
Atom   5H    basis set group =>   2


           ************************************************************
           *        Program running with 12 parallel MPI-processes    *
           *              working on a common directory               *
           ************************************************************
------------------------------------------------------------------------------
                           ORCA GTO INTEGRAL CALCULATION
------------------------------------------------------------------------------

                         BASIS SET STATISTICS AND STARTUP INFO

 # of primitive gaussian shells          ...   64
 # of primitive gaussian functions       ...  124
 # of contracted shells                  ...   38
 # of contracted basis functions         ...   86
 Highest angular momentum                ...    3
 Maximum contraction depth               ...    6
 Integral package used                   ... LIBINT
 Integral threshhold            Thresh   ...  2.500e-11
 Primitive cut-off              TCut     ...  2.500e-12


------------------------------ INTEGRAL EVALUATION ----------------------------


 * One electron integrals 
 Pre-screening matrix                    ... done
 Shell pair data                         ... done (   0.000 sec)



           ************************************************************
           *        Program running with 12 parallel MPI-processes    *
           *              working on a common directory               *
           ************************************************************
-------------------------------------------------------------------------------
                                 ORCA SCF
-------------------------------------------------------------------------------

------------
SCF SETTINGS
------------
Hamiltonian:
 Ab initio Hamiltonian  Method          .... Hartree-Fock(GTOs)


General Settings:
 Integral files         IntName         .... 4h2o.temelso.etal.dset.2h2o.dset-orca.engrad-mp2.def2tzvp
 Hartree-Fock type      HFTyp           .... RHF
 Total Charge           Charge          ....    0
 Multiplicity           Mult            ....    1
 Number of Electrons    NEL             ....   20
 Basis Dimension        Dim             ....   86
 Nuclear Repulsion      ENuc            ....     37.4778520452 Eh

Convergence Acceleration:
 DIIS                   CNVDIIS         .... on
   Start iteration      DIISMaxIt       ....    12
   Startup error        DIISStart       ....  0.200000
   # of expansion vecs  DIISMaxEq       ....     5
   Bias factor          DIISBfac        ....   1.050
   Max. coefficient     DIISMaxC        ....  10.000
 Newton-Raphson         CNVNR           .... off
 SOSCF                  CNVSOSCF        .... on
   Start iteration      SOSCFMaxIt      ....   150
   Startup grad/error   SOSCFStart      ....  0.003300
 Level Shifting         CNVShift        .... on
   Level shift para.    LevelShift      ....    0.2500
   Turn off err/grad.   ShiftErr        ....    0.0010
 Zerner damping         CNVZerner       .... off
 Static damping         CNVDamp         .... on
   Fraction old density DampFac         ....    0.7000
   Max. Damping (<1)    DampMax         ....    0.9800
   Min. Damping (>=0)   DampMin         ....    0.0000
   Turn off err/grad.   DampErr         ....    0.1000
 Fernandez-Rico         CNVRico         .... off

SCF Procedure:
 Maximum # iterations   MaxIter         ....   125
 SCF integral mode      SCFMode         .... Direct
   Integral package                     .... LIBINT
 Reset frequency        DirectResetFreq ....    20
 Integral Threshold     Thresh          ....  2.500e-11 Eh
 Primitive CutOff       TCut            ....  2.500e-12 Eh

Convergence Tolerance:
 Convergence Check Mode ConvCheckMode   .... Total+1el-Energy
 Convergence forced     ConvForced      .... 1
 Energy Change          TolE            ....  1.000e-08 Eh
 1-El. energy change                    ....  1.000e-05 Eh
 Orbital Gradient       TolG            ....  1.000e-05
 Orbital Rotation angle TolX            ....  1.000e-05
 DIIS Error             TolErr          ....  5.000e-07


Diagonalization of the overlap matrix:
Smallest eigenvalue                        ... 5.806e-03
Time for diagonalization                   ...    0.002 sec
Threshold for overlap eigenvalues          ... 1.000e-08
Number of eigenvalues below threshold      ... 0
Time for construction of square roots      ...    0.001 sec
Total time needed                          ...    0.003 sec

-------------------
DFT GRID GENERATION
-------------------

General Integration Accuracy     IntAcc      ...  4.340
Radial Grid Type                 RadialGrid  ... Gauss-Chebyshev
Angular Grid (max. acc.)         AngularGrid ... Lebedev-110
Angular grid pruning method      GridPruning ... 3 (G Style)
Weight generation scheme         WeightScheme... Becke
Basis function cutoff            BFCut       ...    1.0000e-11
Integration weight cutoff        WCut        ...    1.0000e-14
Grids for H and He will be reduced by one unit

# of grid points (after initial pruning)     ...   6608 (   0.0 sec)
# of grid points (after weights+screening)   ...   6475 (   0.0 sec)
nearest neighbour list constructed           ...    0.0 sec
Grid point re-assignment to atoms done       ...    0.0 sec
Grid point division into batches done        ...    0.0 sec
Reduced shell lists constructed in    0.0 sec

Total number of grid points                  ...     6475
Total number of batches                      ...      104
Average number of points per batch           ...       62
Average number of grid points per atom       ...     1079
Average number of shells per batch           ...    29.00 (76.32%)
Average number of basis functions per batch  ...    65.60 (76.28%)
Average number of large shells per batch     ...    24.50 (84.48%)
Average number of large basis fcns per batch ...    53.30 (81.25%)
Maximum spatial batch extension              ...  10.47, 10.28, 14.92 au
Average spatial batch extension              ...   0.28,  0.31,  0.33 au

Time for grid setup =    0.010 sec

------------------------------
INITIAL GUESS: MODEL POTENTIAL
------------------------------
Loading Hartree-Fock densities                     ... done
Calculating cut-offs                               ... done
Setting up the integral package                    ... done
Initializing the effective Hamiltonian             ... done
Starting the Coulomb interaction                   ... done (   0.0 sec)
Reading the grid                                   ... done
Mapping shells                                     ... done
Starting the XC term evaluation                    ... done (   0.0 sec)
Transforming the Hamiltonian                       ... done (   0.0 sec)
Diagonalizing the Hamiltonian                      ... done (   0.0 sec)
Back transforming the eigenvectors                 ... done (   0.0 sec)
Now organizing SCF variables                       ... done
                      ------------------
                      INITIAL GUESS DONE (   0.1 sec)
                      ------------------
--------------
SCF ITERATIONS
--------------
ITER       Energy         Delta-E        Max-DP      RMS-DP      [F,P]     Damp
               ***  Starting incremental Fock matrix formation  ***
  0   -151.9313632245   0.000000000000 0.04377438  0.00170103  0.3463865 0.7000
  1   -152.0056392516  -0.074276027027 0.02913225  0.00117389  0.2164088 0.7000
                               ***Turning on DIIS***
  2   -152.0447542063  -0.039114954702 0.01624086  0.00064999  0.1635120 0.7000
  3   -152.3906638782  -0.345909671933 0.00739753  0.00029106  0.1218412 0.7000
  4   -152.3205075355   0.070156342700 0.01644861  0.00067048  0.0862117 0.0000
  5   -152.1346927915   0.185814743987 0.00180713  0.00010693  0.0055892 0.0000
                      *** Initiating the SOSCF procedure ***
                           *** Shutting down DIIS ***
                      *** Re-Reading the Fockian *** 
                      *** Removing any level shift *** 
ITER      Energy       Delta-E        Grad      Rot      Max-DP    RMS-DP
  6   -152.12350815   0.0111846383  0.000911  0.000911  0.001132  0.000064
               *** Restarting incremental Fock matrix formation ***
  7   -152.11995995   0.0035482049  0.000341  0.000471  0.000555  0.000027
  8   -152.11996265  -0.0000026975  0.000153  0.000361  0.000398  0.000022
  9   -152.11996326  -0.0000006191  0.000053  0.000038  0.000083  0.000004
 10   -152.11996331  -0.0000000493  0.000010  0.000008  0.000016  0.000001
                  ***Gradient check signals convergence***
              ***Rediagonalizing the Fockian in SOSCF/NRSCF***

               *****************************************************
               *                     SUCCESS                       *
               *           SCF CONVERGED AFTER  11 CYCLES          *
               *****************************************************


----------------
TOTAL SCF ENERGY
----------------

Total Energy       :         -152.11996332 Eh           -4139.39464 eV

Components:
Nuclear Repulsion  :           37.47785205 Eh            1019.82420 eV
Electronic Energy  :         -189.59781536 Eh           -5159.21885 eV
One Electron Energy:         -284.42456197 Eh           -7739.58580 eV
Two Electron Energy:           94.82674661 Eh            2580.36696 eV

Virial components:
Potential Energy   :         -304.03481921 Eh           -8273.20803 eV
Kinetic Energy     :          151.91485590 Eh            4133.81339 eV
Virial Ratio       :            2.00135015


---------------
SCF CONVERGENCE
---------------

  Last Energy change         ...   -1.2587e-09  Tolerance :   1.0000e-08
  Last MAX-Density change    ...    3.6513e-06  Tolerance :   1.0000e-07
  Last RMS-Density change    ...    1.8537e-07  Tolerance :   5.0000e-09
  Last Orbital Gradient      ...    1.7428e-06  Tolerance :   1.0000e-05
  Last Orbital Rotation      ...    2.0690e-06  Tolerance :   1.0000e-05

             **** THE GBW FILE WAS UPDATED (4h2o.temelso.etal.dset.2h2o.dset-orca.engrad-mp2.def2tzvp.gbw) ****
             **** DENSITY FILE WAS UPDATED (4h2o.temelso.etal.dset.2h2o.dset-orca.engrad-mp2.def2tzvp.scfp) ****
             **** ENERGY FILE WAS UPDATED (4h2o.temelso.etal.dset.2h2o.dset-orca.engrad-mp2.def2tzvp.en.tmp) ****
             **** THE GBW FILE WAS UPDATED (4h2o.temelso.etal.dset.2h2o.dset-orca.engrad-mp2.def2tzvp.gbw) ****
             **** DENSITY FILE WAS UPDATED (4h2o.temelso.etal.dset.2h2o.dset-orca.engrad-mp2.def2tzvp.scfp) ****
----------------
ORBITAL ENERGIES
----------------

  NO   OCC          E(Eh)            E(eV) 
   0   2.0000     -20.595397      -560.4293 
   1   2.0000     -20.521615      -558.4215 
   2   2.0000      -1.377178       -37.4749 
   3   2.0000      -1.304624       -35.5006 
   4   2.0000      -0.739624       -20.1262 
   5   2.0000      -0.685622       -18.6567 
   6   2.0000      -0.613601       -16.6969 
   7   2.0000      -0.554172       -15.0798 
   8   2.0000      -0.522934       -14.2297 
   9   2.0000      -0.470783       -12.8107 
  10   0.0000       0.109789         2.9875 
  11   0.0000       0.174197         4.7401 
  12   0.0000       0.183440         4.9917 
  13   0.0000       0.312074         8.4920 
  14   0.0000       0.480563        13.0768 
  15   0.0000       0.499617        13.5953 
  16   0.0000       0.553015        15.0483 
  17   0.0000       0.582781        15.8583 
  18   0.0000       0.633608        17.2414 
  19   0.0000       0.638988        17.3878 
  20   0.0000       0.649634        17.6774 
  21   0.0000       0.717097        19.5132 
  22   0.0000       0.743784        20.2394 
  23   0.0000       0.785919        21.3860 
  24   0.0000       0.889611        24.2075 
  25   0.0000       0.977880        26.6095 
  26   0.0000       1.367618        37.2148 
  27   0.0000       1.396074        37.9891 
  28   0.0000       1.467842        39.9420 
  29   0.0000       1.488268        40.4978 
  30   0.0000       1.569973        42.7211 
  31   0.0000       1.610954        43.8363 
  32   0.0000       1.788504        48.6677 
  33   0.0000       1.843099        50.1533 
  34   0.0000       1.877744        51.0960 
  35   0.0000       1.987676        54.0874 
  36   0.0000       2.064058        56.1659 
  37   0.0000       2.111564        57.4586 
  38   0.0000       2.255693        61.3805 
  39   0.0000       2.307362        62.7865 
  40   0.0000       2.321610        63.1742 
  41   0.0000       2.395056        65.1728 
  42   0.0000       2.421437        65.8907 
  43   0.0000       2.508941        68.2718 
  44   0.0000       2.563527        69.7571 
  45   0.0000       2.606389        70.9235 
  46   0.0000       2.683457        73.0206 
  47   0.0000       2.751000        74.8585 
  48   0.0000       2.906266        79.0835 
  49   0.0000       2.920955        79.4832 
  50   0.0000       2.955923        80.4348 
  51   0.0000       3.022691        82.2516 
  52   0.0000       3.075672        83.6933 
  53   0.0000       3.109411        84.6114 
  54   0.0000       3.216557        87.5270 
  55   0.0000       3.404925        92.6527 
  56   0.0000       3.980722       108.3210 
  57   0.0000       4.084304       111.1396 
  58   0.0000       4.278845       116.4333 
  59   0.0000       4.368760       118.8800 
  60   0.0000       5.522973       150.2877 
  61   0.0000       5.584062       151.9500 
  62   0.0000       5.626700       153.1103 
  63   0.0000       5.686041       154.7250 
  64   0.0000       5.790186       157.5590 
  65   0.0000       5.810180       158.1030 
  66   0.0000       5.865477       159.6077 
  67   0.0000       5.871417       159.7694 
  68   0.0000       5.902905       160.6262 
  69   0.0000       5.946376       161.8091 
  70   0.0000       6.432514       175.0376 
  71   0.0000       6.503654       176.9734 
  72   0.0000       6.674285       181.6165 
  73   0.0000       6.728717       183.0977 
  74   0.0000       6.844130       186.2383 
  75   0.0000       6.876057       187.1070 
  76   0.0000       6.897313       187.6854 
  77   0.0000       6.931291       188.6100 
  78   0.0000       6.988562       190.1684 
  79   0.0000       7.030272       191.3034 
  80   0.0000       7.359619       200.2654 
  81   0.0000       7.455733       202.8808 
  82   0.0000       7.484930       203.6753 
  83   0.0000       7.564995       205.8540 
  84   0.0000      44.849956      1220.4293 
  85   0.0000      44.942864      1222.9575 

                    ********************************
                    * MULLIKEN POPULATION ANALYSIS *
                    ********************************

-----------------------
MULLIKEN ATOMIC CHARGES
-----------------------
   0 O :   -0.712595
   1 H :    0.363533
   2 H :    0.369983
   3 O :   -0.739690
   4 H :    0.385201
   5 H :    0.333569
Sum of atomic charges:    0.0000000

--------------------------------
MULLIKEN REDUCED ORBITAL CHARGES
--------------------------------
  0 O s       :     3.804974  s :     3.804974
      pz      :     1.577478  p :     4.881123
      px      :     1.846772
      py      :     1.456874
      dz2     :     0.008995  d :     0.025000
      dxz     :     0.005655
      dyz     :     0.000419
      dx2y2   :     0.007840
      dxy     :     0.002091
      f0      :     0.000089  f :     0.001498
      f+1     :     0.000480
      f-1     :     0.000258
      f+2     :     0.000121
      f-2     :     0.000095
      f+3     :     0.000124
      f-3     :     0.000331
  1 H s       :     0.591528  s :     0.591528
      pz      :     0.018932  p :     0.044939
      px      :     0.015312
      py      :     0.010695
  2 H s       :     0.587638  s :     0.587638
      pz      :     0.010576  p :     0.042379
      px      :     0.012358
      py      :     0.019445
  3 O s       :     3.808967  s :     3.808967
      pz      :     1.669289  p :     4.904348
      px      :     1.502143
      py      :     1.732917
      dz2     :     0.004120  d :     0.024891
      dxz     :     0.000607
      dyz     :     0.008590
      dx2y2   :     0.008935
      dxy     :     0.002639
      f0      :     0.000120  f :     0.001483
      f+1     :     0.000193
      f-1     :     0.000372
      f+2     :     0.000316
      f-2     :     0.000156
      f+3     :     0.000272
      f-3     :     0.000055
  4 H s       :     0.561087  s :     0.561087
      pz      :     0.012056  p :     0.053712
      px      :     0.030160
      py      :     0.011497
  5 H s       :     0.620699  s :     0.620699
      pz      :     0.017627  p :     0.045732
      px      :     0.011396
      py      :     0.016709


                     *******************************
                     * LOEWDIN POPULATION ANALYSIS *
                     *******************************

----------------------
LOEWDIN ATOMIC CHARGES
----------------------
   0 O :   -0.297113
   1 H :    0.167497
   2 H :    0.184128
   3 O :   -0.359849
   4 H :    0.153252
   5 H :    0.152085

-------------------------------
LOEWDIN REDUCED ORBITAL CHARGES
-------------------------------
  0 O s       :     3.462989  s :     3.462989
      pz      :     1.566820  p :     4.799158
      px      :     1.781501
      py      :     1.450837
      dz2     :     0.011902  d :     0.032791
      dxz     :     0.007061
      dyz     :     0.000796
      dx2y2   :     0.010993
      dxy     :     0.002038
      f0      :     0.000147  f :     0.002174
      f+1     :     0.000749
      f-1     :     0.000417
      f+2     :     0.000097
      f-2     :     0.000109
      f+3     :     0.000187
      f-3     :     0.000469
  1 H s       :     0.670691  s :     0.670691
      pz      :     0.077371  p :     0.161812
      px      :     0.053554
      py      :     0.030887
  2 H s       :     0.663298  s :     0.663298
      pz      :     0.030309  p :     0.152575
      px      :     0.040327
      py      :     0.081939
  3 O s       :     3.467860  s :     3.467860
      pz      :     1.652920  p :     4.858882
      px      :     1.487376
      py      :     1.718586
      dz2     :     0.004716  d :     0.031024
      dxz     :     0.001050
      dyz     :     0.011490
      dx2y2   :     0.011393
      dxy     :     0.002375
      f0      :     0.000118  f :     0.002083
      f+1     :     0.000252
      f-1     :     0.000538
      f+2     :     0.000403
      f-2     :     0.000191
      f+3     :     0.000443
      f-3     :     0.000138
  4 H s       :     0.664964  s :     0.664964
      pz      :     0.036305  p :     0.181784
      px      :     0.109048
      py      :     0.036431
  5 H s       :     0.685904  s :     0.685904
      pz      :     0.065478  p :     0.162011
      px      :     0.033193
      py      :     0.063341


                      *****************************
                      * MAYER POPULATION ANALYSIS *
                      *****************************

  NA   - Mulliken gross atomic population
  ZA   - Total nuclear charge
  QA   - Mulliken gross atomic charge
  VA   - Mayer's total valence
  BVA  - Mayer's bonded valence
  FA   - Mayer's free valence

  ATOM       NA         ZA         QA         VA         BVA        FA
  0 O      8.7126     8.0000    -0.7126     1.7685     1.7685     0.0000
  1 H      0.6365     1.0000     0.3635     0.8826     0.8826     0.0000
  2 H      0.6300     1.0000     0.3700     0.8765     0.8765     0.0000
  3 O      8.7397     8.0000    -0.7397     1.7260     1.7260     0.0000
  4 H      0.6148     1.0000     0.3852     0.8819     0.8819     0.0000
  5 H      0.6664     1.0000     0.3336     0.9032     0.9032     0.0000

  Mayer bond orders larger than 0.100000
B(  0-O ,  1-H ) :   0.8754 B(  0-O ,  2-H ) :   0.8697 B(  3-O ,  4-H ) :   0.8399 
B(  3-O ,  5-H ) :   0.8990 

-------
TIMINGS
-------

Total SCF time: 0 days 0 hours 0 min 1 sec 

Total time                  ....       1.360 sec
Sum of individual times     ....       1.209 sec  ( 88.8%)

Fock matrix formation       ....       1.113 sec  ( 81.8%)
Diagonalization             ....       0.006 sec  (  0.5%)
Density matrix formation    ....       0.001 sec  (  0.1%)
Population analysis         ....       0.001 sec  (  0.1%)
Initial guess               ....       0.072 sec  (  5.3%)
Orbital Transformation      ....       0.000 sec  (  0.0%)
Orbital Orthonormalization  ....       0.000 sec  (  0.0%)
DIIS solution               ....       0.002 sec  (  0.2%)
SOSCF solution              ....       0.003 sec  (  0.2%)


           ************************************************************
           *        Program running with 12 parallel MPI-processes    *
           *              working on a common directory               *
           ************************************************************

------------------------------------------------------------------------------
                                ORCA  MP2 
------------------------------------------------------------------------------

Freezing NCore=4 chemical core electrons
MP2 will be done in the AO integral direct mode
The Q1-step will be done using symmetric double matrices
Dimension of the basis                    ...   86
Memory devoted for MP2                    ... 8000 MB   
Memory needed for all in one shot         ...    3 MB
Number of MOs that can be treated together... 3258      
MP2 density construction                  ... relaxed
The MP2 gradient is requested => amplitudes will be stored on disk
Total number of MOs              ...    8
Number of MOs treated per batch  ...    1 
Number of batches necessary      ...    1 
OPERATORS   0/  0 PASS   0
-----------------------------------------------
 MP2 CORRELATION ENERGY   :     -0.513798344 Eh
-----------------------------------------------


---------------------
MP2 DENSITY FORMATION
---------------------

Completing the external part of the density      ... done
Storing the unrelaxed density                    ... done

Calculating G(D)                                 ... done
Completing the Lagrangian                        ... done
Solving the Z-vector equations                   ... 

------------------------------------------------------------------------------
                           ORCA CP-SCF CALCULATION
------------------------------------------------------------------------------

Input orbitals are from        ... 4h2o.temelso.etal.dset.2h2o.dset-orca.engrad-mp2.def2tzvp.gbw
Input Perturbation             ... 4h2o.temelso.etal.dset.2h2o.dset-orca.engrad-mp2.def2tzvp.pin.tmp
Wavefunction output            ... 4h2o.temelso.etal.dset.2h2o.dset-orca.engrad-mp2.def2tzvp.pout.tmp
Perturbation mode              ... Real perturbation (singlet)
Solver                         ... POPLE
Max. number of iterations      ... 128
Convergence tolerance          ... 1.000e-08
Integral handling              ... Direct
Number of perturbations        ... 1
Number of operators            ... 1
Orbital ranges used for CP-SCF:
 Operator 0:  Orbitals   0...  9  to  10... 85
Variables per vector in CP-SCF ... 760
Number of vectors sought       ... 1
     CP-SCF ITERATION   0: 
     CP-SCF ITERATION   1:      0.000216311331
     CP-SCF ITERATION   2:      0.000004588043
     CP-SCF ITERATION   3:      0.000000082177
     CP-SCF ITERATION   4:      0.000000004372
                                                 ... done
Finalizing the relaxed density                   ... done
Transforming P to the AO basis                   ... done
Storing the relaxed density                      ... done

------------------------------------
ENERGY WEIGHTED DENSITY FINALIZATION
------------------------------------

Gathering the parts of the W-matrix              ...                                                      done
Forming the Z-density                            ... done
Transforming Z to the AO basis                   ... done
Calculating G(Z)                                 ... done
Finalizing the W-matrix                          ...                                                      done
Transforming W to the AO basis and storing       ... done

                *********************************************
                * UNRELAXED MP2 DENSITY POPULATION ANALYSIS *
                *********************************************

------------------------------------------------------------------------------
                           ORCA POPULATION ANALYSIS
------------------------------------------------------------------------------
Input electron density              ... 4h2o.temelso.etal.dset.2h2o.dset-orca.engrad-mp2.def2tzvp.pmp2ur
BaseName (.gbw .S,...)              ... 4h2o.temelso.etal.dset.2h2o.dset-orca.engrad-mp2.def2tzvp

                    ********************************
                    * MULLIKEN POPULATION ANALYSIS *
                    ********************************

-----------------------
MULLIKEN ATOMIC CHARGES
-----------------------
   0 O :   -0.707026
   1 H :    0.361272
   2 H :    0.367427
   3 O :   -0.734481
   4 H :    0.381526
   5 H :    0.331281
Sum of atomic charges:    0.0000000

--------------------------------
MULLIKEN REDUCED ORBITAL CHARGES
--------------------------------
  0 O s       :     3.799966  s :     3.799966
      pz      :     1.568104  p :     4.851125
      px      :     1.834723
      py      :     1.448299
      dz2     :     0.014180  d :     0.051869
      dxz     :     0.011070
      dyz     :     0.005793
      dx2y2   :     0.013181
      dxy     :     0.007645
      f0      :     0.000467  f :     0.004065
      f+1     :     0.000843
      f-1     :     0.000623
      f+2     :     0.000490
      f-2     :     0.000454
      f+3     :     0.000495
      f-3     :     0.000693
  1 H s       :     0.592233  s :     0.592233
      pz      :     0.019116  p :     0.046495
      px      :     0.016008
      py      :     0.011370
  2 H s       :     0.588659  s :     0.588659
      pz      :     0.011336  p :     0.043914
      px      :     0.013187
      py      :     0.019391
  3 O s       :     3.804094  s :     3.804094
      pz      :     1.659352  p :     4.874671
      px      :     1.492974
      py      :     1.722345
      dz2     :     0.009566  d :     0.051669
      dxz     :     0.006096
      dyz     :     0.013743
      dx2y2   :     0.014166
      dxy     :     0.008097
      f0      :     0.000485  f :     0.004047
      f+1     :     0.000556
      f-1     :     0.000732
      f+2     :     0.000683
      f-2     :     0.000518
      f+3     :     0.000641
      f-3     :     0.000432
  4 H s       :     0.563115  s :     0.563115
      pz      :     0.012839  p :     0.055358
      px      :     0.030193
      py      :     0.012326
  5 H s       :     0.621258  s :     0.621258
      pz      :     0.018058  p :     0.047461
      px      :     0.012142
      py      :     0.017261


                     *******************************
                     * LOEWDIN POPULATION ANALYSIS *
                     *******************************

----------------------
LOEWDIN ATOMIC CHARGES
----------------------
   0 O :   -0.293340
   1 H :    0.166296
   2 H :    0.182626
   3 O :   -0.357381
   4 H :    0.151030
   5 H :    0.150769

-------------------------------
LOEWDIN REDUCED ORBITAL CHARGES
-------------------------------
  0 O s       :     3.459159  s :     3.459159
      pz      :     1.557275  p :     4.768536
      px      :     1.769280
      py      :     1.441982
      dz2     :     0.017536  d :     0.060710
      dxz     :     0.012844
      dyz     :     0.005993
      dx2y2   :     0.016825
      dxy     :     0.007512
      f0      :     0.000540  f :     0.004935
      f+1     :     0.001166
      f-1     :     0.000820
      f+2     :     0.000479
      f-2     :     0.000480
      f+3     :     0.000575
      f-3     :     0.000874
  1 H s       :     0.668886  s :     0.668886
      pz      :     0.078759  p :     0.164818
      px      :     0.054487
      py      :     0.031572
  2 H s       :     0.661777  s :     0.661777
      pz      :     0.031043  p :     0.155596
      px      :     0.041154
      py      :     0.083399
  3 O s       :     3.464172  s :     3.464172
      pz      :     1.643009  p :     4.829490
      px      :     1.478365
      py      :     1.708115
      dz2     :     0.010240  d :     0.058878
      dxz     :     0.006440
      dyz     :     0.017323
      dx2y2   :     0.017149
      dxy     :     0.007725
      f0      :     0.000495  f :     0.004841
      f+1     :     0.000643
      f-1     :     0.000939
      f+2     :     0.000812
      f-2     :     0.000570
      f+3     :     0.000855
      f-3     :     0.000528
  4 H s       :     0.664463  s :     0.664463
      pz      :     0.037072  p :     0.184507
      px      :     0.110167
      py      :     0.037267
  5 H s       :     0.683894  s :     0.683894
      pz      :     0.066765  p :     0.165338
      px      :     0.033956
      py      :     0.064617


                      *****************************
                      * MAYER POPULATION ANALYSIS *
                      *****************************

  NA   - Mulliken gross atomic population
  ZA   - Total nuclear charge
  QA   - Mulliken gross atomic charge
  VA   - Mayer's total valence
  BVA  - Mayer's bonded valence
  FA   - Mayer's free valence

  ATOM       NA         ZA         QA         VA         BVA        FA
  0 O      8.7070     8.0000    -0.7070     2.0748     1.6883     0.3866
  1 H      0.6387     1.0000     0.3613     0.8882     0.8428     0.0454
  2 H      0.6326     1.0000     0.3674     0.8822     0.8358     0.0465
  3 O      8.7345     8.0000    -0.7345     2.0350     1.6467     0.3883
  4 H      0.6185     1.0000     0.3815     0.8887     0.8434     0.0453
  5 H      0.6687     1.0000     0.3313     0.9093     0.8613     0.0480

  Mayer bond orders larger than 0.100000
B(  0-O ,  1-H ) :   0.8361 B(  0-O ,  2-H ) :   0.8295 B(  3-O ,  4-H ) :   0.8023 
B(  3-O ,  5-H ) :   0.8575 


                *******************************************
                * RELAXED MP2 DENSITY POPULATION ANALYSIS *
                *******************************************

------------------------------------------------------------------------------
                           ORCA POPULATION ANALYSIS
------------------------------------------------------------------------------
Input electron density              ... 4h2o.temelso.etal.dset.2h2o.dset-orca.engrad-mp2.def2tzvp.pmp2re
BaseName (.gbw .S,...)              ... 4h2o.temelso.etal.dset.2h2o.dset-orca.engrad-mp2.def2tzvp

                    ********************************
                    * MULLIKEN POPULATION ANALYSIS *
                    ********************************

-----------------------
MULLIKEN ATOMIC CHARGES
-----------------------
   0 O :   -0.687582
   1 H :    0.354744
   2 H :    0.360963
   3 O :   -0.717576
   4 H :    0.363855
   5 H :    0.325596
Sum of atomic charges:    0.0000000

--------------------------------
MULLIKEN REDUCED ORBITAL CHARGES
--------------------------------
  0 O s       :     3.803313  s :     3.803313
      pz      :     1.563355  p :     4.830575
      px      :     1.824070
      py      :     1.443150
      dz2     :     0.013235  d :     0.049705
      dxz     :     0.010599
      dyz     :     0.005837
      dx2y2   :     0.012462
      dxy     :     0.007572
      f0      :     0.000461  f :     0.003990
      f+1     :     0.000818
      f-1     :     0.000608
      f+2     :     0.000487
      f-2     :     0.000451
      f+3     :     0.000489
      f-3     :     0.000676
  1 H s       :     0.598071  s :     0.598071
      pz      :     0.018590  p :     0.047185
      px      :     0.016723
      py      :     0.011872
  2 H s       :     0.594551  s :     0.594551
      pz      :     0.012009  p :     0.044486
      px      :     0.014068
      py      :     0.018409
  3 O s       :     3.805306  s :     3.805306
      pz      :     1.653978  p :     4.858625
      px      :     1.487988
      py      :     1.716659
      dz2     :     0.009270  d :     0.049665
      dxz     :     0.006120
      dyz     :     0.012889
      dx2y2   :     0.013350
      dxy     :     0.008036
      f0      :     0.000483  f :     0.003980
      f+1     :     0.000546
      f-1     :     0.000716
      f+2     :     0.000668
      f-2     :     0.000513
      f+3     :     0.000626
      f-3     :     0.000427
  4 H s       :     0.580407  s :     0.580407
      pz      :     0.013575  p :     0.055738
      px      :     0.029041
      py      :     0.013123
  5 H s       :     0.626138  s :     0.626138
      pz      :     0.018089  p :     0.048266
      px      :     0.012718
      py      :     0.017460


                     *******************************
                     * LOEWDIN POPULATION ANALYSIS *
                     *******************************

----------------------
LOEWDIN ATOMIC CHARGES
----------------------
   0 O :   -0.290659
   1 H :    0.167885
   2 H :    0.184117
   3 O :   -0.359615
   4 H :    0.145571
   5 H :    0.152702

-------------------------------
LOEWDIN REDUCED ORBITAL CHARGES
-------------------------------
  0 O s       :     3.460735  s :     3.460735
      pz      :     1.558923  p :     4.765357
      px      :     1.761361
      py      :     1.445073
      dz2     :     0.017044  d :     0.059614
      dxz     :     0.012671
      dyz     :     0.005911
      dx2y2   :     0.016487
      dxy     :     0.007500
      f0      :     0.000540  f :     0.004954
      f+1     :     0.001171
      f-1     :     0.000824
      f+2     :     0.000481
      f-2     :     0.000481
      f+3     :     0.000578
      f-3     :     0.000879
  1 H s       :     0.667386  s :     0.667386
      pz      :     0.078062  p :     0.164730
      px      :     0.055115
      py      :     0.031553
  2 H s       :     0.660332  s :     0.660332
      pz      :     0.031404  p :     0.155551
      px      :     0.042007
      py      :     0.082139
  3 O s       :     3.465726  s :     3.465726
      pz      :     1.643361  p :     4.831135
      px      :     1.480434
      py      :     1.707340
      dz2     :     0.010125  d :     0.057886
      dxz     :     0.006386
      dyz     :     0.016875
      dx2y2   :     0.016798
      dxy     :     0.007702
      f0      :     0.000498  f :     0.004870
      f+1     :     0.000648
      f-1     :     0.000941
      f+2     :     0.000816
      f-2     :     0.000573
      f+3     :     0.000866
      f-3     :     0.000527
  4 H s       :     0.669577  s :     0.669577
      pz      :     0.037736  p :     0.184851
      px      :     0.109067
      py      :     0.038048
  5 H s       :     0.681648  s :     0.681648
      pz      :     0.066641  p :     0.165650
      px      :     0.034169
      py      :     0.064841


                      *****************************
                      * MAYER POPULATION ANALYSIS *
                      *****************************

  NA   - Mulliken gross atomic population
  ZA   - Total nuclear charge
  QA   - Mulliken gross atomic charge
  VA   - Mayer's total valence
  BVA  - Mayer's bonded valence
  FA   - Mayer's free valence

  ATOM       NA         ZA         QA         VA         BVA        FA
  0 O      8.6876     8.0000    -0.6876     2.0987     1.7176     0.3811
  1 H      0.6453     1.0000     0.3547     0.8931     0.8477     0.0455
  2 H      0.6390     1.0000     0.3610     0.8875     0.8410     0.0466
  3 O      8.7176     8.0000    -0.7176     2.0425     1.6589     0.3836
  4 H      0.6361     1.0000     0.3639     0.9116     0.8667     0.0449
  5 H      0.6744     1.0000     0.3256     0.9126     0.8645     0.0481

  Mayer bond orders larger than 0.100000
B(  0-O ,  1-H ) :   0.8399 B(  0-O ,  2-H ) :   0.8333 B(  3-O ,  4-H ) :   0.8066 
B(  3-O ,  5-H ) :   0.8608 


----------------------------------
MP2 DERIVATIVE INTEGRAL GENERATION
----------------------------------


Input Wavefunction Amplitudes       ... 4h2o.temelso.etal.dset.2h2o.dset-orca.engrad-mp2.def2tzvp.mp2tsaa.tmp
Input Correlated Electron Density   ... 4h2o.temelso.etal.dset.2h2o.dset-orca.engrad-mp2.def2tzvp.pmp2re
Input Energy Weighted Density       ... 4h2o.temelso.etal.dset.2h2o.dset-orca.engrad-mp2.def2tzvp.wmp2.tmp
Input SCF Electron Density          ... 4h2o.temelso.etal.dset.2h2o.dset-orca.engrad-mp2.def2tzvp.scfp

One-Electron Terms    ...
                        ... One-Electron Terms done
Prescreening matrices              ... done

Batch handling in the gradient evaluation:
Memory available                      ... 8000.0 MB
Memory per occupied orbital in Q2     ...    0.5 MB
Memory per occupied orbital in Q3     ...    0.0 MB
Total memory requirement per |i>      ...    0.5 MB
Max. Number of orbitals possible      ...  16543
Number of orbitals treated per batch  ...      8
Number of batches to be done          ...      1
Batch   0: i=    2 ...     9

---------------------------------------
MP2 TOTAL ENERGY:     -152.633761659 Eh
---------------------------------------

The final MP2 gradient
  0:   0.00751331  -0.01943154  -0.00057526
  1:  -0.00030616  -0.00022742  -0.00090521
  2:  -0.00266676   0.01910731   0.00236569
  3:   0.00830507   0.00370340  -0.00012151
  4:  -0.01391460  -0.00064988  -0.00359759
  5:   0.00106914  -0.00250187   0.00283388

-----------------------------------
NORM OF THE MP2 GRADIENT:  0.033440
-----------------------------------

-------------------------   --------------------
FINAL SINGLE POINT ENERGY      -152.633761659356
-------------------------   --------------------


                            ***************************************
                            *     ORCA property calculations      *
                            ***************************************

                                    ---------------------
                                    Active property flags
                                    ---------------------
   (+) Dipole Moment


------------------------------------------------------------------------------
                       ORCA ELECTRIC PROPERTIES CALCULATION
------------------------------------------------------------------------------

Dipole Moment Calculation                       ... on
Quadrupole Moment Calculation                   ... off
Polarizability Calculation                      ... off
GBWName                                         ... 4h2o.temelso.etal.dset.2h2o.dset-orca.engrad-mp2.def2tzvp.gbw
Electron density file                           ... 4h2o.temelso.etal.dset.2h2o.dset-orca.engrad-mp2.def2tzvp.scfp
The origin for moment calculation is the CENTER OF MASS  = (-0.000010, -0.000000 -0.000002)

-------------
DIPOLE MOMENT
-------------
                                X             Y             Z
Electronic contribution:     -0.09807       0.01641      -0.02981
Nuclear contribution   :     -1.10463      -0.02247      -0.17546
                        -----------------------------------------
Total Dipole Moment    :     -1.20270      -0.00606      -0.20527
                        -----------------------------------------
Magnitude (a.u.)       :      1.22010
Magnitude (Debye)      :      3.10126



--------------------
Rotational spectrum 
--------------------
 
Rotational constants in cm-1:     7.205704     0.239379     0.238182 
Rotational constants in MHz : 216021.564108  7176.393574  7140.527196 

 Dipole components along the rotational axes: 
x,y,z [a.u.] :    -1.219758    -0.027610    -0.009029 
x,y,z [Debye]:    -3.100378    -0.070179    -0.022950 

 

                         *** MP2 UNRELAXED DENSITY ***

------------------------------------------------------------------------------
                       ORCA ELECTRIC PROPERTIES CALCULATION
------------------------------------------------------------------------------

Dipole Moment Calculation                       ... on
Quadrupole Moment Calculation                   ... off
Polarizability Calculation                      ... off
GBWName                                         ... 4h2o.temelso.etal.dset.2h2o.dset-orca.engrad-mp2.def2tzvp.gbw
Electron density file                           ... 4h2o.temelso.etal.dset.2h2o.dset-orca.engrad-mp2.def2tzvp.pmp2ur
The origin for moment calculation is the CENTER OF MASS  = (-0.000010, -0.000000 -0.000002)

-------------
DIPOLE MOMENT
-------------
                                X             Y             Z
Electronic contribution:     -0.08932       0.01633      -0.02820
Nuclear contribution   :     -1.10463      -0.02247      -0.17546
                        -----------------------------------------
Total Dipole Moment    :     -1.19394      -0.00614      -0.20366
                        -----------------------------------------
Magnitude (a.u.)       :      1.21120
Magnitude (Debye)      :      3.07863



--------------------
Rotational spectrum 
--------------------
 
Rotational constants in cm-1:     7.205704     0.239379     0.238182 
Rotational constants in MHz : 216021.564108  7176.393574  7140.527196 

 Dipole components along the rotational axes: 
x,y,z [a.u.] :    -1.210857    -0.027539    -0.008866 
x,y,z [Debye]:    -3.077753    -0.070000    -0.022535 

 

                           *** MP2 RELAXED DENSITY ***

------------------------------------------------------------------------------
                       ORCA ELECTRIC PROPERTIES CALCULATION
------------------------------------------------------------------------------

Dipole Moment Calculation                       ... on
Quadrupole Moment Calculation                   ... off
Polarizability Calculation                      ... off
GBWName                                         ... 4h2o.temelso.etal.dset.2h2o.dset-orca.engrad-mp2.def2tzvp.gbw
Electron density file                           ... 4h2o.temelso.etal.dset.2h2o.dset-orca.engrad-mp2.def2tzvp.pmp2re
The origin for moment calculation is the CENTER OF MASS  = (-0.000010, -0.000000 -0.000002)

-------------
DIPOLE MOMENT
-------------
                                X             Y             Z
Electronic contribution:     -0.08521       0.01645      -0.02402
Nuclear contribution   :     -1.10463      -0.02247      -0.17546
                        -----------------------------------------
Total Dipole Moment    :     -1.18984      -0.00603      -0.19949
                        -----------------------------------------
Magnitude (a.u.)       :      1.20646
Magnitude (Debye)      :      3.06657



--------------------
Rotational spectrum 
--------------------
 
Rotational constants in cm-1:     7.205704     0.239379     0.238182 
Rotational constants in MHz : 216021.564108  7176.393574  7140.527196 

 Dipole components along the rotational axes: 
x,y,z [a.u.] :    -1.206127    -0.027731    -0.005418 
x,y,z [Debye]:    -3.065731    -0.070487    -0.013770 

 

Timings for individual modules:

Sum of individual times         ...        6.077 sec (=   0.101 min)
GTO integral calculation        ...        0.900 sec (=   0.015 min)  14.8 %
SCF iterations                  ...        1.967 sec (=   0.033 min)  32.4 %
MP2 module                      ...        3.210 sec (=   0.054 min)  52.8 %


                 $$$$$$$$$$$$$$$$  JOB NUMBER  2 $$$$$$$$$$$$$$


                     *******************************
                     * Energy+Gradient Calculation *
                     *******************************

---------------------------------
CARTESIAN COORDINATES (ANGSTROEM)
---------------------------------
  O     -1.320718   -1.380843   -0.355460
  H     -1.738918   -1.595443   -1.198260
  H     -1.483918   -0.417343   -0.231960
  O      1.308482    1.370057    0.433940
  H      1.466682    0.402157    0.341840
  H      1.950382    1.781857   -0.157460

----------------------------
CARTESIAN COORDINATES (A.U.)
----------------------------
  NO LB      ZA    FRAG     MASS         X           Y           Z
   0 O     8.0000    0    15.999   -2.495795   -2.609415   -0.671722
   1 H     1.0000    0     1.008   -3.286078   -3.014951   -2.264383
   2 H     1.0000    0     1.008   -2.804198   -0.788664   -0.438341
   3 O     8.0000    0    15.999    2.472673    2.589032    0.820028
   4 H     1.0000    0     1.008    2.771628    0.759966    0.645984
   5 H     1.0000    0     1.008    3.685689    3.367221   -0.297556

--------------------------------
INTERNAL COORDINATES (ANGSTROEM)
--------------------------------
 O      0   0   0     0.000000000000     0.00000000     0.00000000
 H      1   0   0     0.965016186393     0.00000000     0.00000000
 H      1   2   0     0.984996822330   104.78701950     0.00000000
 O      3   1   2     3.381674042542   113.88452213   232.02249023
 H      4   3   1     0.985058404360    66.09980779   357.95791096
 H      4   3   1     0.965074510077   130.85098213    87.14202975

---------------------------
INTERNAL COORDINATES (A.U.)
---------------------------
 O      0   0   0     0.000000000000     0.00000000     0.00000000
 H      1   0   0     1.823616307083     0.00000000     0.00000000
 H      1   2   0     1.861374236986   104.78701950     0.00000000
 O      3   1   2     6.390437814594   113.88452213   232.02249023
 H      4   3   1     1.861490610158    66.09980779   357.95791096
 H      4   3   1     1.823726522873   130.85098213    87.14202975

---------------------
BASIS SET INFORMATION
---------------------
There are 2 groups of distinct atoms

 Group   1 Type O   : 11s6p2d1f contracted to 5s3p2d1f pattern {62111/411/11/1}
 Group   2 Type H   : 5s1p contracted to 3s1p pattern {311/1}

Atom   0O    basis set group =>   1
Atom   1H    basis set group =>   2
Atom   2H    basis set group =>   2
Atom   3O    basis set group =>   1
Atom   4H    basis set group =>   2
Atom   5H    basis set group =>   2


           ************************************************************
           *        Program running with 12 parallel MPI-processes    *
           *              working on a common directory               *
           ************************************************************
------------------------------------------------------------------------------
                           ORCA GTO INTEGRAL CALCULATION
------------------------------------------------------------------------------

                         BASIS SET STATISTICS AND STARTUP INFO

 # of primitive gaussian shells          ...   64
 # of primitive gaussian functions       ...  124
 # of contracted shells                  ...   38
 # of contracted basis functions         ...   86
 Highest angular momentum                ...    3
 Maximum contraction depth               ...    6
 Integral package used                   ... LIBINT
 Integral threshhold            Thresh   ...  2.500e-11
 Primitive cut-off              TCut     ...  2.500e-12


------------------------------ INTEGRAL EVALUATION ----------------------------


 * One electron integrals 
 Pre-screening matrix                    ... done
 Shell pair data                         ... done (   0.000 sec)



           ************************************************************
           *        Program running with 12 parallel MPI-processes    *
           *              working on a common directory               *
           ************************************************************
-------------------------------------------------------------------------------
                                 ORCA SCF
-------------------------------------------------------------------------------

------------
SCF SETTINGS
------------
Hamiltonian:
 Ab initio Hamiltonian  Method          .... Hartree-Fock(GTOs)


General Settings:
 Integral files         IntName         .... 4h2o.temelso.etal.dset.2h2o.dset-orca.engrad-mp2.def2tzvp_job2
 Hartree-Fock type      HFTyp           .... RHF
 Total Charge           Charge          ....    0
 Multiplicity           Mult            ....    1
 Number of Electrons    NEL             ....   20
 Basis Dimension        Dim             ....   86
 Nuclear Repulsion      ENuc            ....     31.6643447616 Eh

Convergence Acceleration:
 DIIS                   CNVDIIS         .... on
   Start iteration      DIISMaxIt       ....    12
   Startup error        DIISStart       ....  0.200000
   # of expansion vecs  DIISMaxEq       ....     5
   Bias factor          DIISBfac        ....   1.050
   Max. coefficient     DIISMaxC        ....  10.000
 Newton-Raphson         CNVNR           .... off
 SOSCF                  CNVSOSCF        .... on
   Start iteration      SOSCFMaxIt      ....   150
   Startup grad/error   SOSCFStart      ....  0.003300
 Level Shifting         CNVShift        .... on
   Level shift para.    LevelShift      ....    0.2500
   Turn off err/grad.   ShiftErr        ....    0.0010
 Zerner damping         CNVZerner       .... off
 Static damping         CNVDamp         .... on
   Fraction old density DampFac         ....    0.7000
   Max. Damping (<1)    DampMax         ....    0.9800
   Min. Damping (>=0)   DampMin         ....    0.0000
   Turn off err/grad.   DampErr         ....    0.1000
 Fernandez-Rico         CNVRico         .... off

SCF Procedure:
 Maximum # iterations   MaxIter         ....   125
 SCF integral mode      SCFMode         .... Direct
   Integral package                     .... LIBINT
 Reset frequency        DirectResetFreq ....    20
 Integral Threshold     Thresh          ....  2.500e-11 Eh
 Primitive CutOff       TCut            ....  2.500e-12 Eh

Convergence Tolerance:
[...]
ENERGY WEIGHTED DENSITY FINALIZATION
------------------------------------

Gathering the parts of the W-matrix              ...                                                      done
Forming the Z-density                            ... done
Transforming Z to the AO basis                   ... done
Calculating G(Z)                                 ... done
Finalizing the W-matrix                          ...                                                      done
Transforming W to the AO basis and storing       ... done

                *********************************************
                * UNRELAXED MP2 DENSITY POPULATION ANALYSIS *
                *********************************************

------------------------------------------------------------------------------
                           ORCA POPULATION ANALYSIS
------------------------------------------------------------------------------
Input electron density              ... 4h2o.temelso.etal.dset.2h2o.dset-orca.engrad-mp2.def2tzvp_job18.pmp2ur
BaseName (.gbw .S,...)              ... 4h2o.temelso.etal.dset.2h2o.dset-orca.engrad-mp2.def2tzvp_job18

                    ********************************
                    * MULLIKEN POPULATION ANALYSIS *
                    ********************************

-----------------------
MULLIKEN ATOMIC CHARGES
-----------------------
   0 O :   -0.712313
   1 H :    0.361149
   2 H :    0.350452
   3 O :   -0.700571
   4 H :    0.358383
   5 H :    0.342899
Sum of atomic charges:   -0.0000000

--------------------------------
MULLIKEN REDUCED ORBITAL CHARGES
--------------------------------
  0 O s       :     3.806544  s :     3.806544
      pz      :     1.670642  p :     4.849954
      px      :     1.669801
      py      :     1.509512
      dz2     :     0.007535  d :     0.051711
      dxz     :     0.013514
      dyz     :     0.007645
      dx2y2   :     0.015192
      dxy     :     0.007825
      f0      :     0.000631  f :     0.004103
      f+1     :     0.000581
      f-1     :     0.000458
      f+2     :     0.000952
      f-2     :     0.000477
      f+3     :     0.000434
      f-3     :     0.000570
  1 H s       :     0.594607  s :     0.594607
      pz      :     0.016389  p :     0.044243
      px      :     0.016955
      py      :     0.010899
  2 H s       :     0.602473  s :     0.602473
      pz      :     0.014994  p :     0.047075
      px      :     0.012767
      py      :     0.019314
  3 O s       :     3.811793  s :     3.811793
      pz      :     1.561503  p :     4.831725
      px      :     1.560700
      py      :     1.709523
      dz2     :     0.007025  d :     0.052999
      dxz     :     0.009781
      dyz     :     0.013754
      dx2y2   :     0.014204
      dxy     :     0.008234
      f0      :     0.000550  f :     0.004055
      f+1     :     0.000397
      f-1     :     0.000723
      f+2     :     0.001009
      f-2     :     0.000424
      f+3     :     0.000509
      f-3     :     0.000443
  4 H s       :     0.594947  s :     0.594947
      pz      :     0.016978  p :     0.046669
      px      :     0.011721
      py      :     0.017970
  5 H s       :     0.610965  s :     0.610965
      pz      :     0.014319  p :     0.046136
      px      :     0.018553
      py      :     0.013263


                     *******************************
                     * LOEWDIN POPULATION ANALYSIS *
                     *******************************

----------------------
LOEWDIN ATOMIC CHARGES
----------------------
   0 O :   -0.330752
   1 H :    0.175884
   2 H :    0.160907
   3 O :   -0.330626
   4 H :    0.159473
   5 H :    0.165114

-------------------------------
LOEWDIN REDUCED ORBITAL CHARGES
-------------------------------
  0 O s       :     3.465861  s :     3.465861
      pz      :     1.640796  p :     4.799971
      px      :     1.654161
      py      :     1.505014
      dz2     :     0.007644  d :     0.060034
      dxz     :     0.016636
      dyz     :     0.009364
      dx2y2   :     0.019224
      dxy     :     0.007166
      f0      :     0.000768  f :     0.004886
      f+1     :     0.000651
      f-1     :     0.000423
      f+2     :     0.001196
      f-2     :     0.000466
      f+3     :     0.000591
      f-3     :     0.000791
  1 H s       :     0.668655  s :     0.668655
      pz      :     0.058308  p :     0.155460
      px      :     0.067589
      py      :     0.029564
  2 H s       :     0.674570  s :     0.674570
      pz      :     0.044489  p :     0.164523
      px      :     0.037766
      py      :     0.082269
  3 O s       :     3.468957  s :     3.468957
      pz      :     1.544510  p :     4.795846
      px      :     1.563380
      py      :     1.687956
      dz2     :     0.007087  d :     0.060848
      dxz     :     0.012464
      dyz     :     0.017553
      dx2y2   :     0.016719
      dxy     :     0.007025
      f0      :     0.000681  f :     0.004975
      f+1     :     0.000373
      f-1     :     0.000902
      f+2     :     0.001349
      f-2     :     0.000432
      f+3     :     0.000681
      f-3     :     0.000557
  4 H s       :     0.676905  s :     0.676905
      pz      :     0.062626  p :     0.163622
      px      :     0.033221
      py      :     0.067775
  5 H s       :     0.675549  s :     0.675549
      pz      :     0.044060  p :     0.159338
      px      :     0.076877
      py      :     0.038401


                      *****************************
                      * MAYER POPULATION ANALYSIS *
                      *****************************

  NA   - Mulliken gross atomic population
  ZA   - Total nuclear charge
  QA   - Mulliken gross atomic charge
  VA   - Mayer's total valence
  BVA  - Mayer's bonded valence
  FA   - Mayer's free valence

  ATOM       NA         ZA         QA         VA         BVA        FA
  0 O      8.7123     8.0000    -0.7123     2.0765     1.6893     0.3872
  1 H      0.6389     1.0000     0.3611     0.8905     0.8433     0.0472
  2 H      0.6495     1.0000     0.3505     0.8970     0.8509     0.0460
  3 O      8.7006     8.0000    -0.7006     2.0796     1.6939     0.3857
  4 H      0.6416     1.0000     0.3584     0.8973     0.8510     0.0463
  5 H      0.6571     1.0000     0.3429     0.9009     0.8530     0.0479

  Mayer bond orders larger than 0.100000
B(  0-O ,  1-H ) :   0.8312 B(  0-O ,  2-H ) :   0.8439 B(  3-O ,  4-H ) :   0.8353 
B(  3-O ,  5-H ) :   0.8493 


                *******************************************
                * RELAXED MP2 DENSITY POPULATION ANALYSIS *
                *******************************************

------------------------------------------------------------------------------
                           ORCA POPULATION ANALYSIS
------------------------------------------------------------------------------
Input electron density              ... 4h2o.temelso.etal.dset.2h2o.dset-orca.engrad-mp2.def2tzvp_job18.pmp2re
BaseName (.gbw .S,...)              ... 4h2o.temelso.etal.dset.2h2o.dset-orca.engrad-mp2.def2tzvp_job18

                    ********************************
                    * MULLIKEN POPULATION ANALYSIS *
                    ********************************

-----------------------
MULLIKEN ATOMIC CHARGES
-----------------------
   0 O :   -0.696796
   1 H :    0.352939
   2 H :    0.342881
   3 O :   -0.682931
   4 H :    0.347797
   5 H :    0.336110
Sum of atomic charges:   -0.0000000

--------------------------------
MULLIKEN REDUCED ORBITAL CHARGES
--------------------------------
  0 O s       :     3.811020  s :     3.811020
      pz      :     1.666745  p :     4.832362
      px      :     1.663812
      py      :     1.501804
      dz2     :     0.007416  d :     0.049386
      dxz     :     0.012674
      dyz     :     0.007376
      dx2y2   :     0.014100
      dxy     :     0.007820
      f0      :     0.000620  f :     0.004028
      f+1     :     0.000574
      f-1     :     0.000456
      f+2     :     0.000921
      f-2     :     0.000475
      f+3     :     0.000426
      f-3     :     0.000556
  1 H s       :     0.602102  s :     0.602102
      pz      :     0.016511  p :     0.044959
      px      :     0.016896
      py      :     0.011552
  2 H s       :     0.609358  s :     0.609358
      pz      :     0.015606  p :     0.047761
      px      :     0.013593
      py      :     0.018561
  3 O s       :     3.816369  s :     3.816369
      pz      :     1.555620  p :     4.811937
      px      :     1.554226
      py      :     1.702091
      dz2     :     0.006935  d :     0.050651
      dxz     :     0.009241
      dyz     :     0.012771
      dx2y2   :     0.013409
      dxy     :     0.008295
      f0      :     0.000540  f :     0.003974
      f+1     :     0.000398
      f-1     :     0.000707
      f+2     :     0.000970
      f-2     :     0.000422
      f+3     :     0.000499
      f-3     :     0.000437
  4 H s       :     0.604699  s :     0.604699
      pz      :     0.017020  p :     0.047504
      px      :     0.012461
      py      :     0.018024
  5 H s       :     0.616927  s :     0.616927
      pz      :     0.014635  p :     0.046963
      px      :     0.018123
      py      :     0.014205


                     *******************************
                     * LOEWDIN POPULATION ANALYSIS *
                     *******************************

----------------------
LOEWDIN ATOMIC CHARGES
----------------------
   0 O :   -0.332721
   1 H :    0.176362
   2 H :    0.162388
   3 O :   -0.331521
   4 H :    0.158757
   5 H :    0.166735

-------------------------------
LOEWDIN REDUCED ORBITAL CHARGES
-------------------------------
  0 O s       :     3.468053  s :     3.468053
      pz      :     1.641291  p :     4.801020
      px      :     1.653915
      py      :     1.505814
      dz2     :     0.007609  d :     0.058742
      dxz     :     0.016166
      dyz     :     0.009150
      dx2y2   :     0.018643
      dxy     :     0.007174
      f0      :     0.000771  f :     0.004906
      f+1     :     0.000654
      f-1     :     0.000424
      f+2     :     0.001209
      f-2     :     0.000468
      f+3     :     0.000587
      f-3     :     0.000794
  1 H s       :     0.668137  s :     0.668137
      pz      :     0.058189  p :     0.155501
      px      :     0.067502
      py      :     0.029810
  2 H s       :     0.673157  s :     0.673157
      pz      :     0.044657  p :     0.164455
      px      :     0.038412
      py      :     0.081386
  3 O s       :     3.470913  s :     3.470913
      pz      :     1.545921  p :     4.796082
      px      :     1.564209
      py      :     1.685952
      dz2     :     0.007025  d :     0.059537
      dxz     :     0.012088
      dyz     :     0.017028
      dx2y2   :     0.016266
      dxy     :     0.007130
      f0      :     0.000681  f :     0.004990
      f+1     :     0.000373
      f-1     :     0.000906
      f+2     :     0.001363
      f-2     :     0.000430
      f+3     :     0.000681
      f-3     :     0.000555
  4 H s       :     0.677316  s :     0.677316
      pz      :     0.062323  p :     0.163926
      px      :     0.033646
      py      :     0.067957
  5 H s       :     0.673717  s :     0.673717
      pz      :     0.043987  p :     0.159548
      px      :     0.076367
      py      :     0.039194


                      *****************************
                      * MAYER POPULATION ANALYSIS *
                      *****************************

  NA   - Mulliken gross atomic population
  ZA   - Total nuclear charge
  QA   - Mulliken gross atomic charge
  VA   - Mayer's total valence
  BVA  - Mayer's bonded valence
  FA   - Mayer's free valence

  ATOM       NA         ZA         QA         VA         BVA        FA
  0 O      8.6968     8.0000    -0.6968     2.0898     1.7076     0.3821
  1 H      0.6471     1.0000     0.3529     0.8992     0.8521     0.0470
  2 H      0.6571     1.0000     0.3429     0.9024     0.8564     0.0461
  3 O      8.6829     8.0000    -0.6829     2.0918     1.7114     0.3804
  4 H      0.6522     1.0000     0.3478     0.9095     0.8634     0.0461
  5 H      0.6639     1.0000     0.3361     0.9061     0.8581     0.0480

  Mayer bond orders larger than 0.100000
B(  0-O ,  1-H ) :   0.8350 B(  0-O ,  2-H ) :   0.8481 B(  3-O ,  4-H ) :   0.8402 
B(  3-O ,  5-H ) :   0.8536 


----------------------------------
MP2 DERIVATIVE INTEGRAL GENERATION
----------------------------------


Input Wavefunction Amplitudes       ... 4h2o.temelso.etal.dset.2h2o.dset-orca.engrad-mp2.def2tzvp_job18.mp2tsaa.tmp
Input Correlated Electron Density   ... 4h2o.temelso.etal.dset.2h2o.dset-orca.engrad-mp2.def2tzvp_job18.pmp2re
Input Energy Weighted Density       ... 4h2o.temelso.etal.dset.2h2o.dset-orca.engrad-mp2.def2tzvp_job18.wmp2.tmp
Input SCF Electron Density          ... 4h2o.temelso.etal.dset.2h2o.dset-orca.engrad-mp2.def2tzvp_job18.scfp

One-Electron Terms    ...
                        ... One-Electron Terms done
Prescreening matrices              ... done

Batch handling in the gradient evaluation:
Memory available                      ... 8000.0 MB
Memory per occupied orbital in Q2     ...    0.5 MB
Memory per occupied orbital in Q3     ...    0.0 MB
Total memory requirement per |i>      ...    0.5 MB
Max. Number of orbitals possible      ...  16543
Number of orbitals treated per batch  ...      8
Number of batches to be done          ...      1
Batch   0: i=    2 ...     9

---------------------------------------
MP2 TOTAL ENERGY:     -152.632238854 Eh
---------------------------------------

The final MP2 gradient
  0:   0.01400255   0.00476785  -0.01098194
  1:  -0.01493371  -0.00463408   0.01329334
  2:   0.00127583   0.00153472  -0.00195906
  3:  -0.01092467  -0.00603184  -0.00181656
  4:   0.00051038   0.00201397  -0.00304361
  5:   0.01006962   0.00234938   0.00450782

-----------------------------------
NORM OF THE MP2 GRADIENT:  0.032685
-----------------------------------

-------------------------   --------------------
FINAL SINGLE POINT ENERGY      -152.632238853624
-------------------------   --------------------


                            ***************************************
                            *     ORCA property calculations      *
                            ***************************************

                                    ---------------------
                                    Active property flags
                                    ---------------------
   (+) Dipole Moment


------------------------------------------------------------------------------
                       ORCA ELECTRIC PROPERTIES CALCULATION
------------------------------------------------------------------------------

Dipole Moment Calculation                       ... on
Quadrupole Moment Calculation                   ... off
Polarizability Calculation                      ... off
GBWName                                         ... 4h2o.temelso.etal.dset.2h2o.dset-orca.engrad-mp2.def2tzvp_job18.gbw
Electron density file                           ... 4h2o.temelso.etal.dset.2h2o.dset-orca.engrad-mp2.def2tzvp_job18.scfp
The origin for moment calculation is the CENTER OF MASS  = ( 0.000000,  0.000012  0.000000)

-------------
DIPOLE MOMENT
-------------
                                X             Y             Z
Electronic contribution:     -0.00899      -0.11371      -0.01249
Nuclear contribution   :      0.02147       1.29449       0.03929
                        -----------------------------------------
Total Dipole Moment    :      0.01249       1.18077       0.02680
                        -----------------------------------------
Magnitude (a.u.)       :      1.18114
Magnitude (Debye)      :      3.00223



--------------------
Rotational spectrum 
--------------------
 
Rotational constants in cm-1:     7.372953     0.198207     0.197862 
Rotational constants in MHz : 221035.577435  5942.084327  5931.754129 

 Dipole components along the rotational axes: 
x,y,z [a.u.] :     1.170916     0.056140     0.144582 
x,y,z [Debye]:     2.976231     0.142697     0.367499 

 

                         *** MP2 UNRELAXED DENSITY ***

------------------------------------------------------------------------------
                       ORCA ELECTRIC PROPERTIES CALCULATION
------------------------------------------------------------------------------

Dipole Moment Calculation                       ... on
Quadrupole Moment Calculation                   ... off
Polarizability Calculation                      ... off
GBWName                                         ... 4h2o.temelso.etal.dset.2h2o.dset-orca.engrad-mp2.def2tzvp_job18.gbw
Electron density file                           ... 4h2o.temelso.etal.dset.2h2o.dset-orca.engrad-mp2.def2tzvp_job18.pmp2ur
The origin for moment calculation is the CENTER OF MASS  = ( 0.000000,  0.000012  0.000000)

-------------
DIPOLE MOMENT
-------------
                                X             Y             Z
Electronic contribution:     -0.00925      -0.12630      -0.01292
Nuclear contribution   :      0.02147       1.29449       0.03929
                        -----------------------------------------
Total Dipole Moment    :      0.01223       1.16819       0.02636
                        -----------------------------------------
Magnitude (a.u.)       :      1.16855
Magnitude (Debye)      :      2.97021



--------------------
Rotational spectrum 
--------------------
 
Rotational constants in cm-1:     7.372953     0.198207     0.197862 
Rotational constants in MHz : 221035.577435  5942.084327  5931.754129 

 Dipole components along the rotational axes: 
x,y,z [a.u.] :     1.158431     0.055718     0.142956 
x,y,z [Debye]:     2.944499     0.141624     0.363365 

 

                           *** MP2 RELAXED DENSITY ***

------------------------------------------------------------------------------
                       ORCA ELECTRIC PROPERTIES CALCULATION
------------------------------------------------------------------------------

Dipole Moment Calculation                       ... on
Quadrupole Moment Calculation                   ... off
Polarizability Calculation                      ... off
GBWName                                         ... 4h2o.temelso.etal.dset.2h2o.dset-orca.engrad-mp2.def2tzvp_job18.gbw
Electron density file                           ... 4h2o.temelso.etal.dset.2h2o.dset-orca.engrad-mp2.def2tzvp_job18.pmp2re
The origin for moment calculation is the CENTER OF MASS  = ( 0.000000,  0.000012  0.000000)

-------------
DIPOLE MOMENT
-------------
                                X             Y             Z
Electronic contribution:     -0.00870      -0.14203      -0.01006
Nuclear contribution   :      0.02147       1.29449       0.03929
                        -----------------------------------------
Total Dipole Moment    :      0.01278       1.15245       0.02923
                        -----------------------------------------
Magnitude (a.u.)       :      1.15290
Magnitude (Debye)      :      2.93043



--------------------
Rotational spectrum 
--------------------
 
Rotational constants in cm-1:     7.372953     0.198207     0.197862 
Rotational constants in MHz : 221035.577435  5942.084327  5931.754129 

 Dipole components along the rotational axes: 
x,y,z [a.u.] :     1.142681     0.052994     0.143668 
x,y,z [Debye]:     2.904464     0.134699     0.365174 

 

Timings for individual modules:

Sum of individual times         ...        5.315 sec (=   0.089 min)
GTO integral calculation        ...        0.832 sec (=   0.014 min)  15.7 %
SCF iterations                  ...        2.477 sec (=   0.041 min)  46.6 %
MP2 module                      ...        2.006 sec (=   0.033 min)  37.7 %



                             ****ORCA TERMINATED NORMALLY****
TOTAL RUN TIME: 0 days 0 hours 1 minutes 49 seconds 768 msec
