
                                 *****************
                                 * O   R   C   A *
                                 *****************

           --- An Ab Initio, DFT and Semiempirical electronic structure package ---

                  #######################################################
                  #                        -***-                        #
                  #          Department of theory and spectroscopy      #
                  #               Directorship: Frank Neese             #
                  #        Max Planck Institute fuer Kohlenforschung    #
                  #                Kaiser Wilhelm Platz 1               #
                  #                 D-45470 Muelheim/Ruhr               #
                  #                      Germany                        #
                  #                                                     #
                  #                  All rights reserved                #
                  #                        -***-                        #
                  #######################################################


                         Program Version 4.2.0 -  RELEASE  -


 With contributions from (in alphabetic order):
   Daniel Aravena         : Magnetic Suceptibility
   Michael Atanasov       : Ab Initio Ligand Field Theory (pilot matlab implementation)
   Alexander A. Auer      : GIAO ZORA, VPT2
   Ute Becker             : Parallelization
   Giovanni Bistoni       : ED, misc. LED, open-shell LED, HFLED
   Martin Brehm           : Molecular dynamics
   Dmytro Bykov           : SCF Hessian
   Vijay G. Chilkuri      : MRCI spin determinant printing, contributions to CSF-ICE
   Dipayan Datta          : RHF DLPNO-CCSD density
   Achintya Kumar Dutta   : EOM-CC, STEOM-CC
   Dmitry Ganyushin       : Spin-Orbit,Spin-Spin,Magnetic field MRCI
   Miquel Garcia          : C-PCM Hessian, Gaussian charge scheme
   Yang Guo               : DLPNO-NEVPT2, CIM, IAO-localization
   Andreas Hansen         : Spin unrestricted coupled pair/coupled cluster methods
   Benjamin Helmich-Paris : CASSCF linear response (MC-RPA)
   Lee Huntington         : MR-EOM, pCC
   Robert Izsak           : Overlap fitted RIJCOSX, COSX-SCS-MP3, EOM
   Christian Kollmar      : KDIIS, OOCD, Brueckner-CCSD(T), CCSD density
   Simone Kossmann        : Meta GGA functionals, TD-DFT gradient, OOMP2, MP2 Hessian
   Martin Krupicka        : AUTO-CI
   Lucas Lang             : DCDCAS
   Dagmar Lenk            : GEPOL surface, SMD
   Dimitrios Liakos       : Extrapolation schemes; Compound Job, initial MDCI parallelization
   Dimitrios Manganas     : Further ROCIS development; embedding schemes
   Dimitrios Pantazis     : SARC Basis sets
   Taras Petrenko         : DFT Hessian,TD-DFT gradient, ASA, ECA, R-Raman, ABS, FL, XAS/XES, NRVS
   Peter Pinski           : DLPNO-MP2, DLPNO-MP2 Gradient
   Christoph Reimann      : Effective Core Potentials
   Marius Retegan         : Local ZFS, SOC
   Christoph Riplinger    : Optimizer, TS searches, QM/MM, DLPNO-CCSD(T), (RO)-DLPNO pert. Triples
   Tobias Risthaus        : Range-separated hybrids, TD-DFT gradient, RPA, STAB
   Michael Roemelt        : Original ROCIS implementation
   Masaaki Saitow         : Open-shell DLPNO-CCSD energy and density
   Barbara Sandhoefer     : DKH picture change effects
   Avijit Sen             : IP-ROCIS
   Kantharuban Sivalingam : CASSCF convergence, NEVPT2, FIC-MRCI
   Bernardo de Souza      : ESD, SOC TD-DFT
   Georgi Stoychev        : AutoAux, RI-MP2 NMR
   Willem Van den Heuvel  : Paramagnetic NMR
   Boris Wezisla          : Elementary symmetry handling
   Frank Wennmohs         : Technical directorship


 We gratefully acknowledge several colleagues who have allowed us to
 interface, adapt or use parts of their codes:
   Stefan Grimme, W. Hujo, H. Kruse,             : VdW corrections, initial TS optimization,
                  C. Bannwarth                     DFT functionals, gCP, sTDA/sTD-DF
   Ed Valeev, F. Pavosevic, A. Kumar             : LibInt (2-el integral package), F12 methods
   Garnet Chan, S. Sharma, J. Yang, R. Olivares  : DMRG
   Ulf Ekstrom                                   : XCFun DFT Library
   Mihaly Kallay                                 : mrcc  (arbitrary order and MRCC methods)
   Andreas Klamt, Michael Diedenhofen            : otool_cosmo (COSMO solvation model)
   Jiri Pittner, Ondrej Demel                    : Mk-CCSD
   Frank Weinhold                                : gennbo (NPA and NBO analysis)
   Christopher J. Cramer and Donald G. Truhlar   : smd solvation model
   Lars Goerigk                                  : TD-DFT with DH, B97 family of functionals
   V. Asgeirsson, H. Jonsson                     : NEB implementation
   FAccTs GmbH                                   : IRC, NEB, NEB-TS, Multilevel, MM, QM/MM, CI optimization
   S Lehtola, MJT Oliveira, MAL Marques          : LibXC Library


 Your calculation uses the libint2 library for the computation of 2-el integrals
 For citations please refer to: http://libint.valeyev.net

 Your ORCA version has been built with support for libXC version: 4.2.3
 For citations please refer to: https://tddft.org/programs/libxc/

 This ORCA versions uses:
   CBLAS   interface :  Fast vector & matrix operations
   LAPACKE interface :  Fast linear algebra routines
   SCALAPACK package :  Parallel linear algebra routines


----- Orbital basis set information -----
Your calculation utilizes the basis: def2-TZVP
   F. Weigend and R. Ahlrichs, Phys. Chem. Chem. Phys. 7, 3297 (2005).

================================================================================
                                        WARNINGS
                       Please study these warnings very carefully!
================================================================================


WARNING: The frozen-core approximation for MP2-gradient calculations is turned on by default.

INFO   : the flag for use of LIBINT has been found!

----- Orbital basis set information -----
Your calculation utilizes the basis: def2-TZVP
   F. Weigend and R. Ahlrichs, Phys. Chem. Chem. Phys. 7, 3297 (2005).

================================================================================
                                        WARNINGS
                       Please study these warnings very carefully!
================================================================================


WARNING: The frozen-core approximation for MP2-gradient calculations is turned on by default.

INFO   : the flag for use of LIBINT has been found!

----- Orbital basis set information -----
Your calculation utilizes the basis: def2-TZVP
   F. Weigend and R. Ahlrichs, Phys. Chem. Chem. Phys. 7, 3297 (2005).

================================================================================
                                        WARNINGS
                       Please study these warnings very carefully!
================================================================================


WARNING: The frozen-core approximation for MP2-gradient calculations is turned on by default.

INFO   : the flag for use of LIBINT has been found!

----- Orbital basis set information -----
Your calculation utilizes the basis: def2-TZVP
   F. Weigend and R. Ahlrichs, Phys. Chem. Chem. Phys. 7, 3297 (2005).

================================================================================
                                        WARNINGS
                       Please study these warnings very carefully!
================================================================================


WARNING: The frozen-core approximation for MP2-gradient calculations is turned on by default.

INFO   : the flag for use of LIBINT has been found!

----- Orbital basis set information -----
Your calculation utilizes the basis: def2-TZVP
   F. Weigend and R. Ahlrichs, Phys. Chem. Chem. Phys. 7, 3297 (2005).

================================================================================
                                        WARNINGS
                       Please study these warnings very carefully!
================================================================================


WARNING: The frozen-core approximation for MP2-gradient calculations is turned on by default.

INFO   : the flag for use of LIBINT has been found!

----- Orbital basis set information -----
Your calculation utilizes the basis: def2-TZVP
   F. Weigend and R. Ahlrichs, Phys. Chem. Chem. Phys. 7, 3297 (2005).

================================================================================
                                        WARNINGS
                       Please study these warnings very carefully!
================================================================================


WARNING: The frozen-core approximation for MP2-gradient calculations is turned on by default.

INFO   : the flag for use of LIBINT has been found!

----- Orbital basis set information -----
Your calculation utilizes the basis: def2-TZVP
   F. Weigend and R. Ahlrichs, Phys. Chem. Chem. Phys. 7, 3297 (2005).

================================================================================
                                        WARNINGS
                       Please study these warnings very carefully!
================================================================================


WARNING: The frozen-core approximation for MP2-gradient calculations is turned on by default.

INFO   : the flag for use of LIBINT has been found!

----- Orbital basis set information -----
Your calculation utilizes the basis: def2-TZVP
   F. Weigend and R. Ahlrichs, Phys. Chem. Chem. Phys. 7, 3297 (2005).

================================================================================
                                        WARNINGS
                       Please study these warnings very carefully!
================================================================================


WARNING: The frozen-core approximation for MP2-gradient calculations is turned on by default.

INFO   : the flag for use of LIBINT has been found!

----- Orbital basis set information -----
Your calculation utilizes the basis: def2-TZVP
   F. Weigend and R. Ahlrichs, Phys. Chem. Chem. Phys. 7, 3297 (2005).

================================================================================
                                        WARNINGS
                       Please study these warnings very carefully!
================================================================================


WARNING: The frozen-core approximation for MP2-gradient calculations is turned on by default.

INFO   : the flag for use of LIBINT has been found!

----- Orbital basis set information -----
Your calculation utilizes the basis: def2-TZVP
   F. Weigend and R. Ahlrichs, Phys. Chem. Chem. Phys. 7, 3297 (2005).

================================================================================
                                        WARNINGS
                       Please study these warnings very carefully!
================================================================================


WARNING: The frozen-core approximation for MP2-gradient calculations is turned on by default.

INFO   : the flag for use of LIBINT has been found!

----- Orbital basis set information -----
Your calculation utilizes the basis: def2-TZVP
   F. Weigend and R. Ahlrichs, Phys. Chem. Chem. Phys. 7, 3297 (2005).

================================================================================
                                        WARNINGS
                       Please study these warnings very carefully!
================================================================================


WARNING: The frozen-core approximation for MP2-gradient calculations is turned on by default.

INFO   : the flag for use of LIBINT has been found!

----- Orbital basis set information -----
Your calculation utilizes the basis: def2-TZVP
   F. Weigend and R. Ahlrichs, Phys. Chem. Chem. Phys. 7, 3297 (2005).

================================================================================
                                        WARNINGS
                       Please study these warnings very carefully!
================================================================================


WARNING: The frozen-core approximation for MP2-gradient calculations is turned on by default.

INFO   : the flag for use of LIBINT has been found!

----- Orbital basis set information -----
Your calculation utilizes the basis: def2-TZVP
   F. Weigend and R. Ahlrichs, Phys. Chem. Chem. Phys. 7, 3297 (2005).

================================================================================
                                        WARNINGS
                       Please study these warnings very carefully!
================================================================================


WARNING: The frozen-core approximation for MP2-gradient calculations is turned on by default.

INFO   : the flag for use of LIBINT has been found!

----- Orbital basis set information -----
Your calculation utilizes the basis: def2-TZVP
   F. Weigend and R. Ahlrichs, Phys. Chem. Chem. Phys. 7, 3297 (2005).

================================================================================
                                        WARNINGS
                       Please study these warnings very carefully!
================================================================================


WARNING: The frozen-core approximation for MP2-gradient calculations is turned on by default.

INFO   : the flag for use of LIBINT has been found!

----- Orbital basis set information -----
Your calculation utilizes the basis: def2-TZVP
   F. Weigend and R. Ahlrichs, Phys. Chem. Chem. Phys. 7, 3297 (2005).

================================================================================
                                        WARNINGS
                       Please study these warnings very carefully!
================================================================================


WARNING: The frozen-core approximation for MP2-gradient calculations is turned on by default.

INFO   : the flag for use of LIBINT has been found!

----- Orbital basis set information -----
Your calculation utilizes the basis: def2-TZVP
   F. Weigend and R. Ahlrichs, Phys. Chem. Chem. Phys. 7, 3297 (2005).

================================================================================
                                        WARNINGS
                       Please study these warnings very carefully!
================================================================================


WARNING: The frozen-core approximation for MP2-gradient calculations is turned on by default.

INFO   : the flag for use of LIBINT has been found!

----- Orbital basis set information -----
Your calculation utilizes the basis: def2-TZVP
   F. Weigend and R. Ahlrichs, Phys. Chem. Chem. Phys. 7, 3297 (2005).

================================================================================
                                        WARNINGS
                       Please study these warnings very carefully!
================================================================================


WARNING: The frozen-core approximation for MP2-gradient calculations is turned on by default.

INFO   : the flag for use of LIBINT has been found!

----- Orbital basis set information -----
Your calculation utilizes the basis: def2-TZVP
   F. Weigend and R. Ahlrichs, Phys. Chem. Chem. Phys. 7, 3297 (2005).

================================================================================
                                        WARNINGS
                       Please study these warnings very carefully!
================================================================================


WARNING: The frozen-core approximation for MP2-gradient calculations is turned on by default.

INFO   : the flag for use of LIBINT has been found!

----- Orbital basis set information -----
Your calculation utilizes the basis: def2-TZVP
   F. Weigend and R. Ahlrichs, Phys. Chem. Chem. Phys. 7, 3297 (2005).

================================================================================
                                        WARNINGS
                       Please study these warnings very carefully!
================================================================================


WARNING: The frozen-core approximation for MP2-gradient calculations is turned on by default.

INFO   : the flag for use of LIBINT has been found!

----- Orbital basis set information -----
Your calculation utilizes the basis: def2-TZVP
   F. Weigend and R. Ahlrichs, Phys. Chem. Chem. Phys. 7, 3297 (2005).

================================================================================
                                        WARNINGS
                       Please study these warnings very carefully!
================================================================================


WARNING: The frozen-core approximation for MP2-gradient calculations is turned on by default.

INFO   : the flag for use of LIBINT has been found!

----- Orbital basis set information -----
Your calculation utilizes the basis: def2-TZVP
   F. Weigend and R. Ahlrichs, Phys. Chem. Chem. Phys. 7, 3297 (2005).

================================================================================
                                        WARNINGS
                       Please study these warnings very carefully!
================================================================================


WARNING: The frozen-core approximation for MP2-gradient calculations is turned on by default.

INFO   : the flag for use of LIBINT has been found!

----- Orbital basis set information -----
Your calculation utilizes the basis: def2-TZVP
   F. Weigend and R. Ahlrichs, Phys. Chem. Chem. Phys. 7, 3297 (2005).

================================================================================
                                        WARNINGS
                       Please study these warnings very carefully!
================================================================================


WARNING: The frozen-core approximation for MP2-gradient calculations is turned on by default.

INFO   : the flag for use of LIBINT has been found!

----- Orbital basis set information -----
Your calculation utilizes the basis: def2-TZVP
   F. Weigend and R. Ahlrichs, Phys. Chem. Chem. Phys. 7, 3297 (2005).

================================================================================
                                        WARNINGS
                       Please study these warnings very carefully!
================================================================================


WARNING: The frozen-core approximation for MP2-gradient calculations is turned on by default.

INFO   : the flag for use of LIBINT has been found!

----- Orbital basis set information -----
Your calculation utilizes the basis: def2-TZVP
   F. Weigend and R. Ahlrichs, Phys. Chem. Chem. Phys. 7, 3297 (2005).

================================================================================
                                        WARNINGS
                       Please study these warnings very carefully!
================================================================================


WARNING: The frozen-core approximation for MP2-gradient calculations is turned on by default.

INFO   : the flag for use of LIBINT has been found!

----- Orbital basis set information -----
Your calculation utilizes the basis: def2-TZVP
   F. Weigend and R. Ahlrichs, Phys. Chem. Chem. Phys. 7, 3297 (2005).

================================================================================
                                        WARNINGS
                       Please study these warnings very carefully!
================================================================================


WARNING: The frozen-core approximation for MP2-gradient calculations is turned on by default.

INFO   : the flag for use of LIBINT has been found!

----- Orbital basis set information -----
Your calculation utilizes the basis: def2-TZVP
   F. Weigend and R. Ahlrichs, Phys. Chem. Chem. Phys. 7, 3297 (2005).

================================================================================
                                        WARNINGS
                       Please study these warnings very carefully!
================================================================================


WARNING: The frozen-core approximation for MP2-gradient calculations is turned on by default.

INFO   : the flag for use of LIBINT has been found!

----- Orbital basis set information -----
Your calculation utilizes the basis: def2-TZVP
   F. Weigend and R. Ahlrichs, Phys. Chem. Chem. Phys. 7, 3297 (2005).

================================================================================
                                        WARNINGS
                       Please study these warnings very carefully!
================================================================================


WARNING: The frozen-core approximation for MP2-gradient calculations is turned on by default.

INFO   : the flag for use of LIBINT has been found!

----- Orbital basis set information -----
Your calculation utilizes the basis: def2-TZVP
   F. Weigend and R. Ahlrichs, Phys. Chem. Chem. Phys. 7, 3297 (2005).

================================================================================
                                        WARNINGS
                       Please study these warnings very carefully!
================================================================================


WARNING: The frozen-core approximation for MP2-gradient calculations is turned on by default.

INFO   : the flag for use of LIBINT has been found!

----- Orbital basis set information -----
Your calculation utilizes the basis: def2-TZVP
   F. Weigend and R. Ahlrichs, Phys. Chem. Chem. Phys. 7, 3297 (2005).

================================================================================
                                        WARNINGS
                       Please study these warnings very carefully!
================================================================================


WARNING: The frozen-core approximation for MP2-gradient calculations is turned on by default.

INFO   : the flag for use of LIBINT has been found!

----- Orbital basis set information -----
Your calculation utilizes the basis: def2-TZVP
   F. Weigend and R. Ahlrichs, Phys. Chem. Chem. Phys. 7, 3297 (2005).

================================================================================
                                        WARNINGS
                       Please study these warnings very carefully!
================================================================================


WARNING: The frozen-core approximation for MP2-gradient calculations is turned on by default.

INFO   : the flag for use of LIBINT has been found!

----- Orbital basis set information -----
Your calculation utilizes the basis: def2-TZVP
   F. Weigend and R. Ahlrichs, Phys. Chem. Chem. Phys. 7, 3297 (2005).

================================================================================
                                        WARNINGS
                       Please study these warnings very carefully!
================================================================================


WARNING: The frozen-core approximation for MP2-gradient calculations is turned on by default.

INFO   : the flag for use of LIBINT has been found!

----- Orbital basis set information -----
Your calculation utilizes the basis: def2-TZVP
   F. Weigend and R. Ahlrichs, Phys. Chem. Chem. Phys. 7, 3297 (2005).

================================================================================
                                        WARNINGS
                       Please study these warnings very carefully!
================================================================================


WARNING: The frozen-core approximation for MP2-gradient calculations is turned on by default.

INFO   : the flag for use of LIBINT has been found!

----- Orbital basis set information -----
Your calculation utilizes the basis: def2-TZVP
   F. Weigend and R. Ahlrichs, Phys. Chem. Chem. Phys. 7, 3297 (2005).

================================================================================
                                        WARNINGS
                       Please study these warnings very carefully!
================================================================================


WARNING: The frozen-core approximation for MP2-gradient calculations is turned on by default.

INFO   : the flag for use of LIBINT has been found!

----- Orbital basis set information -----
Your calculation utilizes the basis: def2-TZVP
   F. Weigend and R. Ahlrichs, Phys. Chem. Chem. Phys. 7, 3297 (2005).

================================================================================
                                        WARNINGS
                       Please study these warnings very carefully!
================================================================================


WARNING: The frozen-core approximation for MP2-gradient calculations is turned on by default.

INFO   : the flag for use of LIBINT has been found!

----- Orbital basis set information -----
Your calculation utilizes the basis: def2-TZVP
   F. Weigend and R. Ahlrichs, Phys. Chem. Chem. Phys. 7, 3297 (2005).

================================================================================
                                        WARNINGS
                       Please study these warnings very carefully!
================================================================================


WARNING: The frozen-core approximation for MP2-gradient calculations is turned on by default.

INFO   : the flag for use of LIBINT has been found!

----- Orbital basis set information -----
Your calculation utilizes the basis: def2-TZVP
   F. Weigend and R. Ahlrichs, Phys. Chem. Chem. Phys. 7, 3297 (2005).

================================================================================
                                        WARNINGS
                       Please study these warnings very carefully!
================================================================================


WARNING: The frozen-core approximation for MP2-gradient calculations is turned on by default.

INFO   : the flag for use of LIBINT has been found!

----- Orbital basis set information -----
Your calculation utilizes the basis: def2-TZVP
   F. Weigend and R. Ahlrichs, Phys. Chem. Chem. Phys. 7, 3297 (2005).

================================================================================
                                        WARNINGS
                       Please study these warnings very carefully!
================================================================================


WARNING: The frozen-core approximation for MP2-gradient calculations is turned on by default.

INFO   : the flag for use of LIBINT has been found!

----- Orbital basis set information -----
Your calculation utilizes the basis: def2-TZVP
   F. Weigend and R. Ahlrichs, Phys. Chem. Chem. Phys. 7, 3297 (2005).

================================================================================
                                        WARNINGS
                       Please study these warnings very carefully!
================================================================================


WARNING: The frozen-core approximation for MP2-gradient calculations is turned on by default.

INFO   : the flag for use of LIBINT has been found!

----- Orbital basis set information -----
Your calculation utilizes the basis: def2-TZVP
   F. Weigend and R. Ahlrichs, Phys. Chem. Chem. Phys. 7, 3297 (2005).

================================================================================
                                        WARNINGS
                       Please study these warnings very carefully!
================================================================================


WARNING: The frozen-core approximation for MP2-gradient calculations is turned on by default.

INFO   : the flag for use of LIBINT has been found!

----- Orbital basis set information -----
Your calculation utilizes the basis: def2-TZVP
   F. Weigend and R. Ahlrichs, Phys. Chem. Chem. Phys. 7, 3297 (2005).

================================================================================
                                        WARNINGS
                       Please study these warnings very carefully!
================================================================================


WARNING: The frozen-core approximation for MP2-gradient calculations is turned on by default.

INFO   : the flag for use of LIBINT has been found!

----- Orbital basis set information -----
Your calculation utilizes the basis: def2-TZVP
   F. Weigend and R. Ahlrichs, Phys. Chem. Chem. Phys. 7, 3297 (2005).

================================================================================
                                        WARNINGS
                       Please study these warnings very carefully!
================================================================================


WARNING: The frozen-core approximation for MP2-gradient calculations is turned on by default.

INFO   : the flag for use of LIBINT has been found!

----- Orbital basis set information -----
Your calculation utilizes the basis: def2-TZVP
   F. Weigend and R. Ahlrichs, Phys. Chem. Chem. Phys. 7, 3297 (2005).

================================================================================
                                        WARNINGS
                       Please study these warnings very carefully!
================================================================================


WARNING: The frozen-core approximation for MP2-gradient calculations is turned on by default.

INFO   : the flag for use of LIBINT has been found!

----- Orbital basis set information -----
Your calculation utilizes the basis: def2-TZVP
   F. Weigend and R. Ahlrichs, Phys. Chem. Chem. Phys. 7, 3297 (2005).

================================================================================
                                        WARNINGS
                       Please study these warnings very carefully!
================================================================================


WARNING: The frozen-core approximation for MP2-gradient calculations is turned on by default.

INFO   : the flag for use of LIBINT has been found!

----- Orbital basis set information -----
Your calculation utilizes the basis: def2-TZVP
   F. Weigend and R. Ahlrichs, Phys. Chem. Chem. Phys. 7, 3297 (2005).

================================================================================
                                        WARNINGS
                       Please study these warnings very carefully!
================================================================================


WARNING: The frozen-core approximation for MP2-gradient calculations is turned on by default.

INFO   : the flag for use of LIBINT has been found!

----- Orbital basis set information -----
Your calculation utilizes the basis: def2-TZVP
   F. Weigend and R. Ahlrichs, Phys. Chem. Chem. Phys. 7, 3297 (2005).

================================================================================
                                        WARNINGS
                       Please study these warnings very carefully!
================================================================================


WARNING: The frozen-core approximation for MP2-gradient calculations is turned on by default.

INFO   : the flag for use of LIBINT has been found!

----- Orbital basis set information -----
Your calculation utilizes the basis: def2-TZVP
   F. Weigend and R. Ahlrichs, Phys. Chem. Chem. Phys. 7, 3297 (2005).

================================================================================
                                        WARNINGS
                       Please study these warnings very carefully!
================================================================================


WARNING: The frozen-core approximation for MP2-gradient calculations is turned on by default.

INFO   : the flag for use of LIBINT has been found!

----- Orbital basis set information -----
Your calculation utilizes the basis: def2-TZVP
   F. Weigend and R. Ahlrichs, Phys. Chem. Chem. Phys. 7, 3297 (2005).

================================================================================
                                        WARNINGS
                       Please study these warnings very carefully!
================================================================================


WARNING: The frozen-core approximation for MP2-gradient calculations is turned on by default.

INFO   : the flag for use of LIBINT has been found!

----- Orbital basis set information -----
Your calculation utilizes the basis: def2-TZVP
   F. Weigend and R. Ahlrichs, Phys. Chem. Chem. Phys. 7, 3297 (2005).

================================================================================
                                        WARNINGS
                       Please study these warnings very carefully!
================================================================================


WARNING: The frozen-core approximation for MP2-gradient calculations is turned on by default.

INFO   : the flag for use of LIBINT has been found!

----- Orbital basis set information -----
Your calculation utilizes the basis: def2-TZVP
   F. Weigend and R. Ahlrichs, Phys. Chem. Chem. Phys. 7, 3297 (2005).

================================================================================
                                        WARNINGS
                       Please study these warnings very carefully!
================================================================================


WARNING: The frozen-core approximation for MP2-gradient calculations is turned on by default.

INFO   : the flag for use of LIBINT has been found!

----- Orbital basis set information -----
Your calculation utilizes the basis: def2-TZVP
   F. Weigend and R. Ahlrichs, Phys. Chem. Chem. Phys. 7, 3297 (2005).

================================================================================
                                        WARNINGS
                       Please study these warnings very carefully!
================================================================================


WARNING: The frozen-core approximation for MP2-gradient calculations is turned on by default.

INFO   : the flag for use of LIBINT has been found!

----- Orbital basis set information -----
Your calculation utilizes the basis: def2-TZVP
   F. Weigend and R. Ahlrichs, Phys. Chem. Chem. Phys. 7, 3297 (2005).

================================================================================
                                        WARNINGS
                       Please study these warnings very carefully!
================================================================================


WARNING: The frozen-core approximation for MP2-gradient calculations is turned on by default.

INFO   : the flag for use of LIBINT has been found!

----- Orbital basis set information -----
Your calculation utilizes the basis: def2-TZVP
   F. Weigend and R. Ahlrichs, Phys. Chem. Chem. Phys. 7, 3297 (2005).

================================================================================
                                        WARNINGS
                       Please study these warnings very carefully!
================================================================================


WARNING: The frozen-core approximation for MP2-gradient calculations is turned on by default.

INFO   : the flag for use of LIBINT has been found!

----- Orbital basis set information -----
Your calculation utilizes the basis: def2-TZVP
   F. Weigend and R. Ahlrichs, Phys. Chem. Chem. Phys. 7, 3297 (2005).

================================================================================
                                        WARNINGS
                       Please study these warnings very carefully!
================================================================================


WARNING: The frozen-core approximation for MP2-gradient calculations is turned on by default.

INFO   : the flag for use of LIBINT has been found!

----- Orbital basis set information -----
Your calculation utilizes the basis: def2-TZVP
   F. Weigend and R. Ahlrichs, Phys. Chem. Chem. Phys. 7, 3297 (2005).

================================================================================
                                        WARNINGS
                       Please study these warnings very carefully!
================================================================================


WARNING: The frozen-core approximation for MP2-gradient calculations is turned on by default.

INFO   : the flag for use of LIBINT has been found!

----- Orbital basis set information -----
Your calculation utilizes the basis: def2-TZVP
   F. Weigend and R. Ahlrichs, Phys. Chem. Chem. Phys. 7, 3297 (2005).

================================================================================
                                        WARNINGS
                       Please study these warnings very carefully!
================================================================================


WARNING: The frozen-core approximation for MP2-gradient calculations is turned on by default.

INFO   : the flag for use of LIBINT has been found!

----- Orbital basis set information -----
Your calculation utilizes the basis: def2-TZVP
   F. Weigend and R. Ahlrichs, Phys. Chem. Chem. Phys. 7, 3297 (2005).

================================================================================
                                        WARNINGS
                       Please study these warnings very carefully!
================================================================================


WARNING: The frozen-core approximation for MP2-gradient calculations is turned on by default.

INFO   : the flag for use of LIBINT has been found!

----- Orbital basis set information -----
Your calculation utilizes the basis: def2-TZVP
   F. Weigend and R. Ahlrichs, Phys. Chem. Chem. Phys. 7, 3297 (2005).

================================================================================
                                        WARNINGS
                       Please study these warnings very carefully!
================================================================================


WARNING: The frozen-core approximation for MP2-gradient calculations is turned on by default.

INFO   : the flag for use of LIBINT has been found!

----- Orbital basis set information -----
Your calculation utilizes the basis: def2-TZVP
   F. Weigend and R. Ahlrichs, Phys. Chem. Chem. Phys. 7, 3297 (2005).

================================================================================
                                        WARNINGS
                       Please study these warnings very carefully!
================================================================================


WARNING: The frozen-core approximation for MP2-gradient calculations is turned on by default.

INFO   : the flag for use of LIBINT has been found!

----- Orbital basis set information -----
Your calculation utilizes the basis: def2-TZVP
   F. Weigend and R. Ahlrichs, Phys. Chem. Chem. Phys. 7, 3297 (2005).

================================================================================
                                        WARNINGS
                       Please study these warnings very carefully!
================================================================================


WARNING: The frozen-core approximation for MP2-gradient calculations is turned on by default.

INFO   : the flag for use of LIBINT has been found!

----- Orbital basis set information -----
Your calculation utilizes the basis: def2-TZVP
   F. Weigend and R. Ahlrichs, Phys. Chem. Chem. Phys. 7, 3297 (2005).

================================================================================
                                        WARNINGS
                       Please study these warnings very carefully!
================================================================================


WARNING: The frozen-core approximation for MP2-gradient calculations is turned on by default.

INFO   : the flag for use of LIBINT has been found!

----- Orbital basis set information -----
Your calculation utilizes the basis: def2-TZVP
   F. Weigend and R. Ahlrichs, Phys. Chem. Chem. Phys. 7, 3297 (2005).

================================================================================
                                        WARNINGS
                       Please study these warnings very carefully!
================================================================================


WARNING: The frozen-core approximation for MP2-gradient calculations is turned on by default.

INFO   : the flag for use of LIBINT has been found!

----- Orbital basis set information -----
Your calculation utilizes the basis: def2-TZVP
   F. Weigend and R. Ahlrichs, Phys. Chem. Chem. Phys. 7, 3297 (2005).

================================================================================
                                        WARNINGS
                       Please study these warnings very carefully!
================================================================================


WARNING: The frozen-core approximation for MP2-gradient calculations is turned on by default.

INFO   : the flag for use of LIBINT has been found!

----- Orbital basis set information -----
Your calculation utilizes the basis: def2-TZVP
   F. Weigend and R. Ahlrichs, Phys. Chem. Chem. Phys. 7, 3297 (2005).

================================================================================
                                        WARNINGS
                       Please study these warnings very carefully!
================================================================================


WARNING: The frozen-core approximation for MP2-gradient calculations is turned on by default.

INFO   : the flag for use of LIBINT has been found!

----- Orbital basis set information -----
Your calculation utilizes the basis: def2-TZVP
   F. Weigend and R. Ahlrichs, Phys. Chem. Chem. Phys. 7, 3297 (2005).

================================================================================
                                        WARNINGS
                       Please study these warnings very carefully!
================================================================================


WARNING: The frozen-core approximation for MP2-gradient calculations is turned on by default.

INFO   : the flag for use of LIBINT has been found!

----- Orbital basis set information -----
Your calculation utilizes the basis: def2-TZVP
   F. Weigend and R. Ahlrichs, Phys. Chem. Chem. Phys. 7, 3297 (2005).

================================================================================
                                        WARNINGS
                       Please study these warnings very carefully!
================================================================================


WARNING: The frozen-core approximation for MP2-gradient calculations is turned on by default.

INFO   : the flag for use of LIBINT has been found!

----- Orbital basis set information -----
Your calculation utilizes the basis: def2-TZVP
   F. Weigend and R. Ahlrichs, Phys. Chem. Chem. Phys. 7, 3297 (2005).

================================================================================
                                        WARNINGS
                       Please study these warnings very carefully!
================================================================================


WARNING: The frozen-core approximation for MP2-gradient calculations is turned on by default.

INFO   : the flag for use of LIBINT has been found!

----- Orbital basis set information -----
Your calculation utilizes the basis: def2-TZVP
   F. Weigend and R. Ahlrichs, Phys. Chem. Chem. Phys. 7, 3297 (2005).

================================================================================
                                        WARNINGS
                       Please study these warnings very carefully!
================================================================================


WARNING: The frozen-core approximation for MP2-gradient calculations is turned on by default.

INFO   : the flag for use of LIBINT has been found!

----- Orbital basis set information -----
Your calculation utilizes the basis: def2-TZVP
   F. Weigend and R. Ahlrichs, Phys. Chem. Chem. Phys. 7, 3297 (2005).

================================================================================
                                        WARNINGS
                       Please study these warnings very carefully!
================================================================================


WARNING: The frozen-core approximation for MP2-gradient calculations is turned on by default.

INFO   : the flag for use of LIBINT has been found!

----- Orbital basis set information -----
Your calculation utilizes the basis: def2-TZVP
   F. Weigend and R. Ahlrichs, Phys. Chem. Chem. Phys. 7, 3297 (2005).

================================================================================
                                        WARNINGS
                       Please study these warnings very carefully!
================================================================================


WARNING: The frozen-core approximation for MP2-gradient calculations is turned on by default.

INFO   : the flag for use of LIBINT has been found!

----- Orbital basis set information -----
Your calculation utilizes the basis: def2-TZVP
   F. Weigend and R. Ahlrichs, Phys. Chem. Chem. Phys. 7, 3297 (2005).

================================================================================
                                        WARNINGS
                       Please study these warnings very carefully!
================================================================================


WARNING: The frozen-core approximation for MP2-gradient calculations is turned on by default.

INFO   : the flag for use of LIBINT has been found!

================================================================================
                                       INPUT FILE
================================================================================
NAME = 5h2o.temelso.etal.dset.2h2o.dset-orca.engrad-mp2.def2tzvp.inp
|  1> # 5h2o.temelso.etal.dset.2h2o.dset-orca.engrad-mp2.def2tzvp
|  2> ! MP2 def2-TZVP EnGrad TightSCF FrozenCore
|  3> 
|  4> %pal
|  5>     nprocs 12
|  6> end
|  7> 
|  8> %maxcore 8000
|  9> 
| 10> %scf
| 11>     ConvForced true
| 12> end
| 13> 
| 14> *xyz 0 1
| 15> O   0.497160595  -1.249618383  -0.416586660
| 16> H  -0.043539405  -1.499818383  -1.175586660
| 17> H   0.117360595  -0.392818383  -0.108786660
| 18> O  -0.459039405   1.174181617   0.391713340
| 19> H   0.261260595   1.844481617   0.454713340
| 20> H  -0.940239405   1.245681617   1.224513340
| 21> *
| 22> 
| 23> 
| 24> $new_job
| 25> 
| 26> # 5h2o.temelso.etal.dset.2h2o.dset-orca.engrad-mp2.def2tzvp
| 27> ! MP2 def2-TZVP EnGrad TightSCF FrozenCore
| 28> 
| 29> %pal
| 30>     nprocs 12
| 31> end
| 32> 
| 33> %maxcore 8000
| 34> 
| 35> %scf
| 36>     ConvForced true
| 37> end
| 38> 
| 39> *xyz 0 1
| 40> O  -0.578831567  -2.107646892  -0.458200057
| 41> H  -1.119531567  -2.357846892  -1.217200057
| 42> H  -0.958631567  -1.250846892  -0.150400057
| 43> O   0.570568433   2.075053108   0.453399943
| 44> H   0.815668433   2.514353108   1.276699943
| 45> H   1.393668433   1.611753108   0.167099943
| 46> *
| 47> 
| 48> 
| 49> $new_job
| 50> 
| 51> # 5h2o.temelso.etal.dset.2h2o.dset-orca.engrad-mp2.def2tzvp
| 52> ! MP2 def2-TZVP EnGrad TightSCF FrozenCore
| 53> 
| 54> %pal
| 55>     nprocs 12
| 56> end
| 57> 
| 58> %maxcore 8000
| 59> 
| 60> %scf
| 61>     ConvForced true
| 62> end
| 63> 
| 64> *xyz 0 1
| 65> O  -1.674917378  -1.409424094  -0.032778772
| 66> H  -2.215617378  -1.659624094  -0.791778772
| 67> H  -2.054717378  -0.552624094   0.275021228
| 68> O   1.712982622   1.412075906   0.112221228
| 69> H   1.504682622   0.462275906  -0.054878772
| 70> H   2.161382622   1.707875906  -0.689478772
| 71> *
| 72> 
| 73> 
| 74> $new_job
| 75> 
| 76> # 5h2o.temelso.etal.dset.2h2o.dset-orca.engrad-mp2.def2tzvp
| 77> ! MP2 def2-TZVP EnGrad TightSCF FrozenCore
| 78> 
| 79> %pal
| 80>     nprocs 12
| 81> end
| 82> 
| 83> %maxcore 8000
| 84> 
| 85> %scf
| 86>     ConvForced true
| 87> end
| 88> 
| 89> *xyz 0 1
| 90> O  -1.305991658  -0.107565929   0.159740451
| 91> H  -1.846691658  -0.357765929  -0.599259549
| 92> H  -1.685791658   0.749234071   0.467540451
| 93> O   1.389708342   0.120534071  -0.168859549
| 94> H   0.416208342  -0.004065929  -0.067559549
| 95> H   1.787308342  -0.593265929   0.344040451
| 96> *
| 97> 
| 98> 
| 99> $new_job
|100> 
|101> # 5h2o.temelso.etal.dset.2h2o.dset-orca.engrad-mp2.def2tzvp
|102> ! MP2 def2-TZVP EnGrad TightSCF FrozenCore
|103> 
|104> %pal
|105>     nprocs 12
|106> end
|107> 
|108> %maxcore 8000
|109> 
|110> %scf
|111>     ConvForced true
|112> end
|113> 
|114> *xyz 0 1
|115> O  -1.089368705  -0.899528801  -0.091729278
|116> H  -0.369068705  -0.229228801  -0.028729278
|117> H  -1.570568705  -0.828028801   0.741070722
|118> O   1.016231295   0.859371199   0.011570722
|119> H   1.261331295   1.298671199   0.834870722
|120> H   1.839331295   0.396071199  -0.274729278
|121> *
|122> 
|123> 
|124> $new_job
|125> 
|126> # 5h2o.temelso.etal.dset.2h2o.dset-orca.engrad-mp2.def2tzvp
|127> ! MP2 def2-TZVP EnGrad TightSCF FrozenCore
|128> 
|129> %pal
|130>     nprocs 12
|131> end
|132> 
|133> %maxcore 8000
|134> 
|135> %scf
|136>     ConvForced true
|137> end
|138> 
|139> *xyz 0 1
|140> O  -2.185454516  -0.201306003   0.333692007
|141> H  -1.465154516   0.468993997   0.396692007
|142> H  -2.666654516  -0.129806003   1.166492007
|143> O   2.158645484   0.196393997  -0.329607993
|144> H   1.950345484  -0.753406003  -0.496707993
|145> H   2.607045484   0.492193997  -1.131307993
|146> *
|147> 
|148> 
|149> $new_job
|150> 
|151> # 5h2o.temelso.etal.dset.2h2o.dset-orca.engrad-mp2.def2tzvp
|152> ! MP2 def2-TZVP EnGrad TightSCF FrozenCore
|153> 
|154> %pal
|155>     nprocs 12
|156> end
|157> 
|158> %maxcore 8000
|159> 
|160> %scf
|161>     ConvForced true
|162> end
|163> 
|164> *xyz 0 1
|165> O  -1.816528796   1.100552162   0.526211230
|166> H  -1.096228796   1.770852162   0.589211230
|167> H  -2.297728796   1.172052162   1.359011230
|168> O   1.835371204  -1.095147838  -0.610688770
|169> H   0.861871204  -1.219747838  -0.509388770
|170> H   2.232971204  -1.808947838  -0.097788770
|171> *
|172> 
|173> 
|174> $new_job
|175> 
|176> # 5h2o.temelso.etal.dset.2h2o.dset-orca.engrad-mp2.def2tzvp
|177> ! MP2 def2-TZVP EnGrad TightSCF FrozenCore
|178> 
|179> %pal
|180>     nprocs 12
|181> end
|182> 
|183> %maxcore 8000
|184> 
|185> %scf
|186>     ConvForced true
|187> end
|188> 
|189> *xyz 0 1
|190> O  -1.155846678   0.699565488   0.395378610
|191> H  -0.910746678   1.138865488   1.218678610
|192> H  -0.332746678   0.236265488   0.109078610
|193> O   1.082653322  -0.661634512  -0.371221390
|194> H   0.874353322  -1.611434512  -0.538321390
|195> H   1.531053322  -0.365834512  -1.172921390
|196> *
|197> 
|198> 
|199> $new_job
|200> 
|201> # 5h2o.temelso.etal.dset.2h2o.dset-orca.engrad-mp2.def2tzvp
|202> ! MP2 def2-TZVP EnGrad TightSCF FrozenCore
|203> 
|204> %pal
|205>     nprocs 12
|206> end
|207> 
|208> %maxcore 8000
|209> 
|210> %scf
|211>     ConvForced true
|212> end
|213> 
|214> *xyz 0 1
|215> O  -0.786920958   2.001423653   0.587897833
|216> H  -0.541820958   2.440723653   1.411197833
|217> H   0.036179042   1.538123653   0.301597833
|218> O   0.759379042  -1.953176347  -0.652302167
|219> H  -0.214120958  -2.077776347  -0.551002167
|220> H   1.156979042  -2.666976347  -0.139402167
|221> *
|222> 
|223> 
|224> $new_job
|225> 
|226> # 5h2o.temelso.etal.dset.2h2o.dset-orca.engrad-mp2.def2tzvp
|227> ! MP2 def2-TZVP EnGrad TightSCF FrozenCore
|228> 
|229> %pal
|230>     nprocs 12
|231> end
|232> 
|233> %maxcore 8000
|234> 
|235> %scf
|236>     ConvForced true
|237> end
|238> 
|239> *xyz 0 1
|240> O   0.355493231   1.338446451   0.246719118
|241> H   0.147193231   0.388646451   0.079619118
|242> H   0.803893231   1.634246451  -0.554980882
|243> O  -0.336706769  -1.254953549  -0.226880882
|244> H  -1.310206769  -1.379553549  -0.125580882
|245> H   0.060893231  -1.968753549   0.286019118
|246> *
|247> 
|248> 
|249> $new_job
|250> 
|251> # 5h2o.temelso.etal.dset.2h2o.dset-orca.engrad-mp2.def2tzvp
|252> ! MP2 def2-TZVP EnGrad TightSCF FrozenCore
|253> 
|254> %pal
|255>     nprocs 12
|256> end
|257> 
|258> %maxcore 8000
|259> 
|260> %scf
|261>     ConvForced true
|262> end
|263> 
|264> *xyz 0 1
|265> O   0.042550456   1.138528622   0.803151645
|266> H  -0.090249544   0.340228622   0.233751645
|267> H  -0.684149544   1.123928622   1.437251645
|268> O  -0.033649544  -1.084071378  -0.753248355
|269> H   0.916750456  -1.347271378  -0.783148355
|270> H  -0.283649544  -0.981371378  -1.680048355
|271> *
|272> 
|273> 
|274> $new_job
|275> 
|276> # 5h2o.temelso.etal.dset.2h2o.dset-orca.engrad-mp2.def2tzvp
|277> ! MP2 def2-TZVP EnGrad TightSCF FrozenCore
|278> 
|279> %pal
|280>     nprocs 12
|281> end
|282> 
|283> %maxcore 8000
|284> 
|285> %scf
|286>     ConvForced true
|287> end
|288> 
|289> *xyz 0 1
|290> O  -1.311174056   1.314839601   0.787972781
|291> H  -1.443974056   0.516539601   0.218572781
|292> H  -2.037874056   1.300239601   1.422072781
|293> O   1.317025944  -1.277960399  -0.842027219
|294> H   1.820025944  -1.966060399  -0.390127219
|295> H   1.568925944  -0.436160399  -0.392427219
|296> *
|297> 
|298> 
|299> $new_job
|300> 
|301> # 5h2o.temelso.etal.dset.2h2o.dset-orca.engrad-mp2.def2tzvp
|302> ! MP2 def2-TZVP EnGrad TightSCF FrozenCore
|303> 
|304> %pal
|305>     nprocs 12
|306> end
|307> 
|308> %maxcore 8000
|309> 
|310> %scf
|311>     ConvForced true
|312> end
|313> 
|314> *xyz 0 1
|315> O  -1.414789684   0.117825204   0.138758363
|316> H  -1.547589684  -0.680474796  -0.430641637
|317> H  -2.141489684   0.103225204   0.772858363
|318> O   1.517410316  -0.115374796  -0.141141637
|319> H   1.369110316   0.688725204  -0.673641637
|320> H   0.690910316  -0.150374796   0.369258363
|321> *
|322> 
|323> 
|324> $new_job
|325> 
|326> # 5h2o.temelso.etal.dset.2h2o.dset-orca.engrad-mp2.def2tzvp
|327> ! MP2 def2-TZVP EnGrad TightSCF FrozenCore
|328> 
|329> %pal
|330>     nprocs 12
|331> end
|332> 
|333> %maxcore 8000
|334> 
|335> %scf
|336>     ConvForced true
|337> end
|338> 
|339> *xyz 0 1
|340> O  -0.699472039  -0.983468232   0.652447966
|341> H  -0.832272039  -1.781768232   0.083047966
|342> H  -1.426172039  -0.998068232   1.286547966
|343> O   0.786427961   1.008531768  -0.705652034
|344> H   0.791627961   1.875231768  -0.281152034
|345> H   0.086427961   0.506731768  -0.243852034
|346> *
|347> 
|348> 
|349> $new_job
|350> 
|351> # 5h2o.temelso.etal.dset.2h2o.dset-orca.engrad-mp2.def2tzvp
|352> ! MP2 def2-TZVP EnGrad TightSCF FrozenCore
|353> 
|354> %pal
|355>     nprocs 12
|356> end
|357> 
|358> %maxcore 8000
|359> 
|360> %scf
|361>     ConvForced true
|362> end
|363> 
|364> *xyz 0 1
|365> O  -1.392908664   0.185290214   0.038344093
|366> H  -0.442508664  -0.077909786   0.008444093
|367> H  -1.642908664   0.287990214  -0.888455907
|368> O   1.311491336  -0.184909786  -0.035255907
|369> H   1.814491336  -0.873009786   0.416644093
|370> H   1.563391336   0.656890214   0.414344093
|371> *
|372> 
|373> 
|374> $new_job
|375> 
|376> # 5h2o.temelso.etal.dset.2h2o.dset-orca.engrad-mp2.def2tzvp
|377> ! MP2 def2-TZVP EnGrad TightSCF FrozenCore
|378> 
|379> %pal
|380>     nprocs 12
|381> end
|382> 
|383> %maxcore 8000
|384> 
|385> %scf
|386>     ConvForced true
|387> end
|388> 
|389> *xyz 0 1
|390> O  -1.496524292  -1.011724183  -0.610870326
|391> H  -0.546124292  -1.274924183  -0.640770326
|392> H  -1.746524292  -0.909024183  -1.537670326
|393> O   1.511875708   0.977675817   0.665629674
|394> H   1.363575708   1.781775817   0.133129674
|395> H   0.685375708   0.942675817   1.176029674
|396> *
|397> 
|398> 
|399> $new_job
|400> 
|401> # 5h2o.temelso.etal.dset.2h2o.dset-orca.engrad-mp2.def2tzvp
|402> ! MP2 def2-TZVP EnGrad TightSCF FrozenCore
|403> 
|404> %pal
|405>     nprocs 12
|406> end
|407> 
|408> %maxcore 8000
|409> 
|410> %scf
|411>     ConvForced true
|412> end
|413> 
|414> *xyz 0 1
|415> O  -0.781206647  -2.113017619  -0.097180722
|416> H   0.169193353  -2.376217619  -0.127080722
|417> H  -1.031206647  -2.010317619  -1.023980722
|418> O   0.780893353   2.101582381   0.101119278
|419> H   0.786093353   2.968282381   0.525619278
|420> H   0.080893353   1.599782381   0.562919278
|421> *
|422> 
|423> 
|424> $new_job
|425> 
|426> # 5h2o.temelso.etal.dset.2h2o.dset-orca.engrad-mp2.def2tzvp
|427> ! MP2 def2-TZVP EnGrad TightSCF FrozenCore
|428> 
|429> %pal
|430>     nprocs 12
|431> end
|432> 
|433> %maxcore 8000
|434> 
|435> %scf
|436>     ConvForced true
|437> end
|438> 
|439> *xyz 0 1
|440> O  -0.145848804  -1.205613204  -0.699649189
|441> H   0.357151196  -1.893713204  -0.247749189
|442> H   0.106051196  -0.363813204  -0.250049189
|443> O   0.158151196   1.153986796   0.650450811
|444> H   0.009851196   1.958086796   0.117950811
|445> H  -0.668348804   1.118986796   1.160850811
|446> *
|447> 
|448> 
|449> $new_job
|450> 
|451> # 5h2o.temelso.etal.dset.2h2o.dset-orca.engrad-mp2.def2tzvp
|452> ! MP2 def2-TZVP EnGrad TightSCF FrozenCore
|453> 
|454> %pal
|455>     nprocs 12
|456> end
|457> 
|458> %maxcore 8000
|459> 
|460> %scf
|461>     ConvForced true
|462> end
|463> 
|464> *xyz 0 1
|465> O   0.569468841  -2.306906640  -0.185959585
|466> H   1.072468841  -2.995006640   0.265940415
|467> H   0.821368841  -1.465106640   0.263640415
|468> O  -0.572831159   2.277893360   0.085940415
|469> H  -0.567631159   3.144593360   0.510440415
|470> H  -1.272831159   1.776093360   0.547740415
|471> *
|472> 
|473> 
|474> $new_job
|475> 
|476> # 5h2o.temelso.etal.dset.2h2o.dset-orca.engrad-mp2.def2tzvp
|477> ! MP2 def2-TZVP EnGrad TightSCF FrozenCore
|478> 
|479> %pal
|480>     nprocs 12
|481> end
|482> 
|483> %maxcore 8000
|484> 
|485> %scf
|486>     ConvForced true
|487> end
|488> 
|489> *xyz 0 1
|490> O   0.769853213  -1.144321037   0.514925996
|491> H   0.621553213  -0.340221037  -0.017574004
|492> H  -0.056646787  -1.179321037   1.025325996
|493> O  -0.676446787   1.080878963  -0.563274004
|494> H  -0.671246787   1.947578963  -0.138774004
|495> H  -1.376446787   0.579078963  -0.101474004
|496> *
|497> 
|498> 
|499> $new_job
|500> 
|501> # 5h2o.temelso.etal.dset.2h2o.dset-orca.engrad-mp2.def2tzvp
|502> ! MP2 def2-TZVP EnGrad TightSCF FrozenCore
|503> 
|504> %pal
|505>     nprocs 12
|506> end
|507> 
|508> %maxcore 8000
|509> 
|510> %scf
|511>     ConvForced true
|512> end
|513> 
|514> *xyz 0 1
|515> O  -0.904468211  -0.017395155   1.233600329
|516> H  -0.098768211  -0.156595155   0.706900329
|517> H  -1.117568211   0.906004845   1.025400329
|518> O   0.843431789   0.013204845  -1.147399671
|519> H   0.424831789  -0.726795155  -1.654899671
|520> H   1.760431789   0.043904845  -1.445799671
|521> *
|522> 
|523> 
|524> $new_job
|525> 
|526> # 5h2o.temelso.etal.dset.2h2o.dset-orca.engrad-mp2.def2tzvp
|527> ! MP2 def2-TZVP EnGrad TightSCF FrozenCore
|528> 
|529> %pal
|530>     nprocs 12
|531> end
|532> 
|533> %maxcore 8000
|534> 
|535> %scf
|536>     ConvForced true
|537> end
|538> 
|539> *xyz 0 1
|540> O   0.843642248   0.251409351   1.108620349
|541> H   1.649342248   0.112209351   0.581920349
|542> H   0.630542248   1.174809351   0.900420349
|543> O  -0.907257752  -0.346790649  -1.102779651
|544> H  -0.467557752  -0.361990649  -0.229079651
|545> H  -0.802457752   0.589109351  -1.345979651
|546> *
|547> 
|548> 
|549> $new_job
|550> 
|551> # 5h2o.temelso.etal.dset.2h2o.dset-orca.engrad-mp2.def2tzvp
|552> ! MP2 def2-TZVP EnGrad TightSCF FrozenCore
|553> 
|554> %pal
|555>     nprocs 12
|556> end
|557> 
|558> %maxcore 8000
|559> 
|560> %scf
|561>     ConvForced true
|562> end
|563> 
|564> *xyz 0 1
|565> O   0.108685713  -1.003248317   1.160624006
|566> H   0.914385713  -1.142448317   0.633924006
|567> H  -0.104414287  -0.079848317   0.952424006
|568> O  -0.192514287   0.939151683  -1.082775994
|569> H  -0.108114287   1.790351683  -1.529175994
|570> H   0.628885713   0.449451683  -1.292975994
|571> *
|572> 
|573> 
|574> $new_job
|575> 
|576> # 5h2o.temelso.etal.dset.2h2o.dset-orca.engrad-mp2.def2tzvp
|577> ! MP2 def2-TZVP EnGrad TightSCF FrozenCore
|578> 
|579> %pal
|580>     nprocs 12
|581> end
|582> 
|583> %maxcore 8000
|584> 
|585> %scf
|586>     ConvForced true
|587> end
|588> 
|589> *xyz 0 1
|590> O  -0.108095315   0.907490412   1.819507027
|591> H   0.697604685   0.768290412   1.292807027
|592> H  -0.321195315   1.830890412   1.611307027
|593> O   0.119804685  -0.919809588  -1.816692973
|594> H  -0.701595315  -0.556709588  -1.400992973
|595> H   0.139304685  -1.846909588  -1.547792973
|596> *
|597> 
|598> 
|599> $new_job
|600> 
|601> # 5h2o.temelso.etal.dset.2h2o.dset-orca.engrad-mp2.def2tzvp
|602> ! MP2 def2-TZVP EnGrad TightSCF FrozenCore
|603> 
|604> %pal
|605>     nprocs 12
|606> end
|607> 
|608> %maxcore 8000
|609> 
|610> %scf
|611>     ConvForced true
|612> end
|613> 
|614> *xyz 0 1
|615> O   1.720227276   0.308486572  -0.079893589
|616> H   1.301627276  -0.431513428  -0.587393589
|617> H   2.637227276   0.339186572  -0.378293589
|618> O  -1.778572724  -0.320313428   0.089706411
|619> H  -1.338872724  -0.335513428   0.963406411
|620> H  -1.673772724   0.615586572  -0.153493589
|621> *
|622> 
|623> 
|624> $new_job
|625> 
|626> # 5h2o.temelso.etal.dset.2h2o.dset-orca.engrad-mp2.def2tzvp
|627> ! MP2 def2-TZVP EnGrad TightSCF FrozenCore
|628> 
|629> %pal
|630>     nprocs 12
|631> end
|632> 
|633> %maxcore 8000
|634> 
|635> %scf
|636>     ConvForced true
|637> end
|638> 
|639> *xyz 0 1
|640> O   0.985270741  -0.946171096  -0.027889933
|641> H   0.566670741  -1.686171096  -0.535389933
|642> H   1.902270741  -0.915471096  -0.326289933
|643> O  -1.063829259   0.965628904   0.109710067
|644> H  -0.979429259   1.816828904  -0.336689933
|645> H  -0.242429259   0.475928904  -0.100489933
|646> *
|647> 
|648> 
|649> $new_job
|650> 
|651> # 5h2o.temelso.etal.dset.2h2o.dset-orca.engrad-mp2.def2tzvp
|652> ! MP2 def2-TZVP EnGrad TightSCF FrozenCore
|653> 
|654> %pal
|655>     nprocs 12
|656> end
|657> 
|658> %maxcore 8000
|659> 
|660> %scf
|661>     ConvForced true
|662> end
|663> 
|664> *xyz 0 1
|665> O   0.768489713   0.964567633   0.630993088
|666> H   0.349889713   0.224567633   0.123493088
|667> H   1.685489713   0.995267633   0.332593088
|668> O  -0.751510287  -0.893332367  -0.624206912
|669> H  -1.572910287  -0.530232367  -0.208506912
|670> H  -0.732010287  -1.820432367  -0.355306912
|671> *
|672> 
|673> 
|674> $new_job
|675> 
|676> # 5h2o.temelso.etal.dset.2h2o.dset-orca.engrad-mp2.def2tzvp
|677> ! MP2 def2-TZVP EnGrad TightSCF FrozenCore
|678> 
|679> %pal
|680>     nprocs 12
|681> end
|682> 
|683> %maxcore 8000
|684> 
|685> %scf
|686>     ConvForced true
|687> end
|688> 
|689> *xyz 0 1
|690> O  -0.765418800  -1.306166590   0.016730087
|691> H  -0.325718800  -1.321366590   0.890430087
|692> H  -0.660618800  -0.370266590  -0.226469913
|693> O   0.684281200   1.234433410  -0.015269913
|694> H   0.768681200   2.085633410  -0.461669913
|695> H   1.505681200   0.744733410  -0.225469913
|696> *
|697> 
|698> 
|699> $new_job
|700> 
|701> # 5h2o.temelso.etal.dset.2h2o.dset-orca.engrad-mp2.def2tzvp
|702> ! MP2 def2-TZVP EnGrad TightSCF FrozenCore
|703> 
|704> %pal
|705>     nprocs 12
|706> end
|707> 
|708> %maxcore 8000
|709> 
|710> %scf
|711>     ConvForced true
|712> end
|713> 
|714> *xyz 0 1
|715> O  -0.982199828   0.604572139   0.675613108
|716> H  -0.542499828   0.589372139   1.549313108
|717> H  -0.877399828   1.540472139   0.432413108
|718> O   0.996600172  -0.624527861  -0.749186892
|719> H   0.175200172  -0.261427861  -0.333486892
|720> H   1.016100172  -1.551627861  -0.480286892
|721> *
|722> 
|723> 
|724> $new_job
|725> 
|726> # 5h2o.temelso.etal.dset.2h2o.dset-orca.engrad-mp2.def2tzvp
|727> ! MP2 def2-TZVP EnGrad TightSCF FrozenCore
|728> 
|729> %pal
|730>     nprocs 12
|731> end
|732> 
|733> %maxcore 8000
|734> 
|735> %scf
|736>     ConvForced true
|737> end
|738> 
|739> *xyz 0 1
|740> O  -0.267456363   1.890514471   0.695616765
|741> H  -0.183056363   2.741714471   0.249216765
|742> H   0.553943637   1.400814471   0.485416765
|743> O   0.261643637  -1.879185529  -0.697183235
|744> H  -0.559756363  -1.516085529  -0.281483235
|745> H   0.281143637  -2.806285529  -0.428283235
|746> *
|747> 
|748> 
|749> $new_job
|750> 
|751> # 5h2o.temelso.etal.dset.2h2o.dset-orca.engrad-mp2.def2tzvp
|752> ! MP2 def2-TZVP EnGrad TightSCF FrozenCore
|753> 
|754> %pal
|755>     nprocs 12
|756> end
|757> 
|758> %maxcore 8000
|759> 
|760> %scf
|761>     ConvForced true
|762> end
|763> 
|764> *xyz 0 1
|765> O   0.087005430  -0.812369779  -1.148267349
|766> H  -0.029594570  -0.603269779  -0.200367349
|767> H   0.040605430  -1.774269779  -1.210967349
|768> O  -0.130094570   0.825030221   1.071532651
|769> H   0.631605430   1.262730221   0.612932651
|770> H   0.041405430   0.913830221   2.016532651
|771> *
|772> 
|773> 
|774> $new_job
|775> 
|776> # 5h2o.temelso.etal.dset.2h2o.dset-orca.engrad-mp2.def2tzvp
|777> ! MP2 def2-TZVP EnGrad TightSCF FrozenCore
|778> 
|779> %pal
|780>     nprocs 12
|781> end
|782> 
|783> %maxcore 8000
|784> 
|785> %scf
|786>     ConvForced true
|787> end
|788> 
|789> *xyz 0 1
|790> O  -0.831999883  -1.198099398  -0.244648823
|791> H  -0.948599883  -0.988999398   0.703251177
|792> H  -0.878399883  -2.159999398  -0.307348823
|793> O   0.871100117   1.248500602   0.255351177
|794> H   0.759300117   0.426000602  -0.246948823
|795> H   0.447000117   1.922900602  -0.318848823
|796> *
|797> 
|798> 
|799> $new_job
|800> 
|801> # 5h2o.temelso.etal.dset.2h2o.dset-orca.engrad-mp2.def2tzvp
|802> ! MP2 def2-TZVP EnGrad TightSCF FrozenCore
|803> 
|804> %pal
|805>     nprocs 12
|806> end
|807> 
|808> %maxcore 8000
|809> 
|810> %scf
|811>     ConvForced true
|812> end
|813> 
|814> *xyz 0 1
|815> O  -0.004084331  -2.017606859   0.510167731
|816> H  -0.120684331  -1.808506859   1.458067731
|817> H  -0.050484331  -2.979506859   0.447467731
|818> O   0.057215669   2.087393141  -0.518632269
|819> H  -0.729484331   1.543793141  -0.288932269
|820> H   0.057215669   2.136393141  -1.482232269
|821> *
|822> 
|823> 
|824> $new_job
|825> 
|826> # 5h2o.temelso.etal.dset.2h2o.dset-orca.engrad-mp2.def2tzvp
|827> ! MP2 def2-TZVP EnGrad TightSCF FrozenCore
|828> 
|829> %pal
|830>     nprocs 12
|831> end
|832> 
|833> %maxcore 8000
|834> 
|835> %scf
|836>     ConvForced true
|837> end
|838> 
|839> *xyz 0 1
|840> O   0.911745522  -1.092778667   0.034970617
|841> H   0.795145522  -0.883678667   0.982870617
|842> H   0.865345522  -2.054678667  -0.027729383
|843> O  -0.935354478   1.181021333  -0.123929383
|844> H  -0.788954478   1.186621333   0.837170617
|845> H  -0.496754478   0.350921333  -0.380129383
|846> *
|847> 
|848> 
|849> $new_job
|850> 
|851> # 5h2o.temelso.etal.dset.2h2o.dset-orca.engrad-mp2.def2tzvp
|852> ! MP2 def2-TZVP EnGrad TightSCF FrozenCore
|853> 
|854> %pal
|855>     nprocs 12
|856> end
|857> 
|858> %maxcore 8000
|859> 
|860> %scf
|861>     ConvForced true
|862> end
|863> 
|864> *xyz 0 1
|865> O  -0.971213552  -0.415184868   0.876406688
|866> H  -0.209513552   0.022515132   0.417806688
|867> H  -0.799713552  -0.326384868   1.821406688
|868> O   0.948986448   0.394015132  -0.843393312
|869> H   0.837186448  -0.428484868  -1.345693312
|870> H   0.524886448   1.068415132  -1.417593312
|871> *
|872> 
|873> 
|874> $new_job
|875> 
|876> # 5h2o.temelso.etal.dset.2h2o.dset-orca.engrad-mp2.def2tzvp
|877> ! MP2 def2-TZVP EnGrad TightSCF FrozenCore
|878> 
|879> %pal
|880>     nprocs 12
|881> end
|882> 
|883> %maxcore 8000
|884> 
|885> %scf
|886>     ConvForced true
|887> end
|888> 
|889> *xyz 0 1
|890> O  -0.143298000  -1.234692329   1.631223242
|891> H   0.618402000  -0.796992329   1.172623242
|892> H   0.028202000  -1.145892329   2.576223242
|893> O   0.135102000   1.232907671  -1.617376758
|894> H  -0.651598000   0.689307671  -1.387676758
|895> H   0.135102000   1.281907671  -2.580976758
|896> *
|897> 
|898> 
|899> $new_job
|900> 
|901> # 5h2o.temelso.etal.dset.2h2o.dset-orca.engrad-mp2.def2tzvp
|902> ! MP2 def2-TZVP EnGrad TightSCF FrozenCore
|903> 
|904> %pal
|905>     nprocs 12
|906> end
|907> 
|908> %maxcore 8000
|909> 
|910> %scf
|911>     ConvForced true
|912> end
|913> 
|914> *xyz 0 1
|915> O   0.772531853  -0.309864137   1.156026128
|916> H   1.534231853   0.127835863   0.697426128
|917> H   0.944031853  -0.221064137   2.101026128
|918> O  -0.857468147   0.326535863  -1.222673872
|919> H  -0.711068147   0.332135863  -0.261573872
|920> H  -0.418868147  -0.503564137  -1.478873872
|921> *
|922> 
|923> 
|924> $new_job
|925> 
|926> # 5h2o.temelso.etal.dset.2h2o.dset-orca.engrad-mp2.def2tzvp
|927> ! MP2 def2-TZVP EnGrad TightSCF FrozenCore
|928> 
|929> %pal
|930>     nprocs 12
|931> end
|932> 
|933> %maxcore 8000
|934> 
|935> %scf
|936>     ConvForced true
|937> end
|938> 
|939> *xyz 0 1
|940> O   0.857896687  -0.811221949   0.815041768
|941> H   0.746096687  -1.633721949   0.312741768
|942> H   0.433796687  -0.136821949   0.240841768
|943> O  -0.783903313   0.847178051  -0.713758232
|944> H  -1.570603313   0.303578051  -0.484058232
|945> H  -0.783903313   0.896178051  -1.677358232
|946> *
|947> 
|948> 
|949> $new_job
|950> 
|951> # 5h2o.temelso.etal.dset.2h2o.dset-orca.engrad-mp2.def2tzvp
|952> ! MP2 def2-TZVP EnGrad TightSCF FrozenCore
|953> 
|954> %pal
|955>     nprocs 12
|956> end
|957> 
|958> %maxcore 8000
|959> 
|960> %scf
|961>     ConvForced true
|962> end
|963> 
|964> *xyz 0 1
|965> O   1.773726541   0.113606244   0.339844654
|966> H   1.661926541  -0.708893756  -0.162455346
|967> H   1.349626541   0.788006244  -0.234355346
|968> O  -1.776473459  -0.059193756  -0.319055346
|969> H  -1.630073459  -0.053593756   0.642044654
|970> H  -1.337873459  -0.889293756  -0.575255346
|971> *
|972> 
|973> 
|974> $new_job
|975> 
|976> # 5h2o.temelso.etal.dset.2h2o.dset-orca.engrad-mp2.def2tzvp
|977> ! MP2 def2-TZVP EnGrad TightSCF FrozenCore
|978> 
|979> %pal
|980>     nprocs 12
|981> end
|982> 
|983> %maxcore 8000
|984> 
|985> %scf
|986>     ConvForced true
|987> end
|988> 
|989> *xyz 0 1
|990> O   0.959842093   0.952498783  -0.434138792
|991> H   0.173142093   0.408898783  -0.204438792
|992> H   0.959842093   1.001498783  -1.397738792
|993> O  -0.948557907  -0.878701217   0.435761208
|994> H  -0.802157907  -0.873101217   1.396861208
|995> H  -0.509957907  -1.708801217   0.179561208
|996> *
|997> 
|998> 
|999> $new_job
|1000> 
|1001> # 5h2o.temelso.etal.dset.2h2o.dset-orca.engrad-mp2.def2tzvp
|1002> ! MP2 def2-TZVP EnGrad TightSCF FrozenCore
|1003> 
|1004> %pal
|1005>     nprocs 12
|1006> end
|1007> 
|1008> %maxcore 8000
|1009> 
|1010> %scf
|1011>     ConvForced true
|1012> end
|1013> 
|1014> *xyz 0 1
|1015> O   0.906881075   0.880745169   0.620009853
|1016> H   0.405581075   0.214345169   0.096509853
|1017> H   1.824781075   0.791645169   0.336009853
|1018> O  -0.881218925  -0.816754831  -0.614790147
|1019> H  -1.669518925  -0.327354831  -0.293490147
|1020> H  -0.968218925  -1.694454831  -0.221890147
|1021> *
|1022> 
|1023> 
|1024> $new_job
|1025> 
|1026> # 5h2o.temelso.etal.dset.2h2o.dset-orca.engrad-mp2.def2tzvp
|1027> ! MP2 def2-TZVP EnGrad TightSCF FrozenCore
|1028> 
|1029> %pal
|1030>     nprocs 12
|1031> end
|1032> 
|1033> %maxcore 8000
|1034> 
|1035> %scf
|1036>     ConvForced true
|1037> end
|1038> 
|1039> *xyz 0 1
|1040> O   1.825211199   0.052245983  -0.011420123
|1041> H   1.323911199  -0.614154017  -0.534920123
|1042> H   2.743111199  -0.036854017  -0.295420123
|1043> O  -1.824388801  -0.007954017  -0.004720123
|1044> H  -2.746588801  -0.153154017   0.238979877
|1045> H  -1.333488801   0.101045983   0.847579877
|1046> *
|1047> 
|1048> 
|1049> $new_job
|1050> 
|1051> # 5h2o.temelso.etal.dset.2h2o.dset-orca.engrad-mp2.def2tzvp
|1052> ! MP2 def2-TZVP EnGrad TightSCF FrozenCore
|1053> 
|1054> %pal
|1055>     nprocs 12
|1056> end
|1057> 
|1058> %maxcore 8000
|1059> 
|1060> %scf
|1061>     ConvForced true
|1062> end
|1063> 
|1064> *xyz 0 1
|1065> O   0.956402971  -0.274388288  -0.995018569
|1066> H   0.455102971  -0.940788288  -1.518518569
|1067> H   1.874302971  -0.363488288  -1.279018569
|1068> O  -1.029697029   0.288911712   1.079781431
|1069> H  -0.971697029   1.177711712   0.678981431
|1070> H  -0.194197029  -0.103988288   0.772981431
|1071> *
|1072> 
|1073> 
|1074> $new_job
|1075> 
|1076> # 5h2o.temelso.etal.dset.2h2o.dset-orca.engrad-mp2.def2tzvp
|1077> ! MP2 def2-TZVP EnGrad TightSCF FrozenCore
|1078> 
|1079> %pal
|1080>     nprocs 12
|1081> end
|1082> 
|1083> %maxcore 8000
|1084> 
|1085> %scf
|1086>     ConvForced true
|1087> end
|1088> 
|1089> *xyz 0 1
|1090> O   0.883129109  -1.131328476   0.117012760
|1091> H   0.381829109  -1.797728476  -0.406487240
|1092> H   1.801029109  -1.220428476  -0.166987240
|1093> O  -0.905070891   1.235571524  -0.043987240
|1094> H  -1.669770891   0.737371524  -0.373287240
|1095> H  -0.164770891   0.625971524  -0.212487240
|1096> *
|1097> 
|1098> 
|1099> $new_job
|1100> 
|1101> # 5h2o.temelso.etal.dset.2h2o.dset-orca.engrad-mp2.def2tzvp
|1102> ! MP2 def2-TZVP EnGrad TightSCF FrozenCore
|1103> 
|1104> %pal
|1105>     nprocs 12
|1106> end
|1107> 
|1108> %maxcore 8000
|1109> 
|1110> %scf
|1111>     ConvForced true
|1112> end
|1113> 
|1114> *xyz 0 1
|1115> O   0.967299124  -0.806775591  -0.671386174
|1116> H   0.178999124  -0.317375591  -0.350086174
|1117> H   0.880299124  -1.684475591  -0.278486174
|1118> O  -0.894200876   0.830524409   0.570113826
|1119> H  -1.816400876   0.685324409   0.813813826
|1120> H  -0.403300876   0.939524409   1.422413826
|1121> *
|1122> 
|1123> 
|1124> $new_job
|1125> 
|1126> # 5h2o.temelso.etal.dset.2h2o.dset-orca.engrad-mp2.def2tzvp
|1127> ! MP2 def2-TZVP EnGrad TightSCF FrozenCore
|1128> 
|1129> %pal
|1130>     nprocs 12
|1131> end
|1132> 
|1133> %maxcore 8000
|1134> 
|1135> %scf
|1136>     ConvForced true
|1137> end
|1138> 
|1139> *xyz 0 1
|1140> O   0.098490897  -1.133409862  -1.654984620
|1141> H  -0.689809103  -0.644009862  -1.333684620
|1142> H   0.011490897  -2.011109862  -1.262084620
|1143> O  -0.099509103   1.127390138   1.654615380
|1144> H  -0.041509103   2.016190138   1.253815380
|1145> H   0.735990897   0.734490138   1.347815380
|1146> *
|1147> 
|1148> 
|1149> $new_job
|1150> 
|1151> # 5h2o.temelso.etal.dset.2h2o.dset-orca.engrad-mp2.def2tzvp
|1152> ! MP2 def2-TZVP EnGrad TightSCF FrozenCore
|1153> 
|1154> %pal
|1155>     nprocs 12
|1156> end
|1157> 
|1158> %maxcore 8000
|1159> 
|1160> %scf
|1161>     ConvForced true
|1162> end
|1163> 
|1164> *xyz 0 1
|1165> O   0.025217034  -1.990350050  -0.542953291
|1166> H  -0.763082966  -1.500950050  -0.221653291
|1167> H  -0.061782966  -2.868050050  -0.150053291
|1168> O   0.025117034   2.074049950   0.530846709
|1169> H  -0.739582966   1.575849950   0.201546709
|1170> H   0.765417034   1.464449950   0.362346709
|1171> *
|1172> 
|1173> 
|1174> $new_job
|1175> 
|1176> # 5h2o.temelso.etal.dset.2h2o.dset-orca.engrad-mp2.def2tzvp
|1177> ! MP2 def2-TZVP EnGrad TightSCF FrozenCore
|1178> 
|1179> %pal
|1180>     nprocs 12
|1181> end
|1182> 
|1183> %maxcore 8000
|1184> 
|1185> %scf
|1186>     ConvForced true
|1187> end
|1188> 
|1189> *xyz 0 1
|1190> O  -0.844678980  -0.324609048  -1.044914595
|1191> H  -1.766878980  -0.469809048  -0.801214595
|1192> H  -0.353778980  -0.215609048  -0.192614595
|1193> O   0.818821020   0.298890952   1.023185405
|1194> H   0.876821020   1.187690952   0.622385405
|1195> H   1.654321020  -0.094009048   0.716385405
|1196> *
|1197> 
|1198> 
|1199> $new_job
|1200> 
|1201> # 5h2o.temelso.etal.dset.2h2o.dset-orca.engrad-mp2.def2tzvp
|1202> ! MP2 def2-TZVP EnGrad TightSCF FrozenCore
|1203> 
|1204> %pal
|1205>     nprocs 12
|1206> end
|1207> 
|1208> %maxcore 8000
|1209> 
|1210> %scf
|1211>     ConvForced true
|1212> end
|1213> 
|1214> *xyz 0 1
|1215> O  -0.917952843  -1.181549236   0.067116733
|1216> H  -1.840152843  -1.326749236   0.310816733
|1217> H  -0.427052843  -1.072549236   0.919416733
|1218> O   0.943447157   1.245550764  -0.100583267
|1219> H   0.178747157   0.747350764  -0.429883267
|1220> H   1.683747157   0.635950764  -0.269083267
|1221> *
|1222> 
|1223> 
|1224> $new_job
|1225> 
|1226> # 5h2o.temelso.etal.dset.2h2o.dset-orca.engrad-mp2.def2tzvp
|1227> ! MP2 def2-TZVP EnGrad TightSCF FrozenCore
|1228> 
|1229> %pal
|1230>     nprocs 12
|1231> end
|1232> 
|1233> %maxcore 8000
|1234> 
|1235> %scf
|1236>     ConvForced true
|1237> end
|1238> 
|1239> *xyz 0 1
|1240> O  -0.123261070  -0.884683508   1.151618287
|1241> H  -0.065261070   0.004116492   0.750818287
|1242> H   0.712238930  -1.277583508   0.844818287
|1243> O   0.074638930   0.918916492  -1.084181713
|1244> H  -0.690061070   0.420716492  -1.413481713
|1245> H   0.814938930   0.309316492  -1.252681713
|1246> *
|1247> 
|1248> 
|1249> $new_job
|1250> 
|1251> # 5h2o.temelso.etal.dset.2h2o.dset-orca.engrad-mp2.def2tzvp
|1252> ! MP2 def2-TZVP EnGrad TightSCF FrozenCore
|1253> 
|1254> %pal
|1255>     nprocs 12
|1256> end
|1257> 
|1258> %maxcore 8000
|1259> 
|1260> %scf
|1261>     ConvForced true
|1262> end
|1263> 
|1264> *xyz 0 1
|1265> O   1.424227087   0.104842537  -0.100102532
|1266> H   0.456727087  -0.064657463  -0.088902532
|1267> H   1.628027087   0.259442537  -1.031202532
|1268> O  -1.351872913  -0.114957463   0.092997468
|1269> H  -1.570672913   0.743742537   0.510597468
|1270> H  -1.662672913  -0.777957463   0.722297468
|1271> *
|1272> 
|1273> 
|1274> $new_job
|1275> 
|1276> # 5h2o.temelso.etal.dset.2h2o.dset-orca.engrad-mp2.def2tzvp
|1277> ! MP2 def2-TZVP EnGrad TightSCF FrozenCore
|1278> 
|1279> %pal
|1280>     nprocs 12
|1281> end
|1282> 
|1283> %maxcore 8000
|1284> 
|1285> %scf
|1286>     ConvForced true
|1287> end
|1288> 
|1289> *xyz 0 1
|1290> O   1.452315922  -1.160451518  -0.720496597
|1291> H   0.484815922  -1.329951518  -0.709296597
|1292> H   1.656115922  -1.005851518  -1.651596597
|1293> O  -1.436584078   1.150448482   0.712703403
|1294> H  -1.916484078   1.379448482   1.518203403
|1295> H  -0.474184078   1.115148482   0.966403403
|1296> *
|1297> 
|1298> 
|1299> $new_job
|1300> 
|1301> # 5h2o.temelso.etal.dset.2h2o.dset-orca.engrad-mp2.def2tzvp
|1302> ! MP2 def2-TZVP EnGrad TightSCF FrozenCore
|1303> 
|1304> %pal
|1305>     nprocs 12
|1306> end
|1307> 
|1308> %maxcore 8000
|1309> 
|1310> %scf
|1311>     ConvForced true
|1312> end
|1313> 
|1314> *xyz 0 1
|1315> O   0.124299310  -1.157710743  -0.722429366
|1316> H  -0.843200690  -1.327210743  -0.711229366
|1317> H   0.328099310  -1.003110743  -1.653529366
|1318> O  -0.094200690   1.165789257   0.839970634
|1319> H  -0.109800690   1.852089257   0.148870634
|1320> H   0.147099310   0.349989257   0.349970634
|1321> *
|1322> 
|1323> 
|1324> $new_job
|1325> 
|1326> # 5h2o.temelso.etal.dset.2h2o.dset-orca.engrad-mp2.def2tzvp
|1327> ! MP2 def2-TZVP EnGrad TightSCF FrozenCore
|1328> 
|1329> %pal
|1330>     nprocs 12
|1331> end
|1332> 
|1333> %maxcore 8000
|1334> 
|1335> %scf
|1336>     ConvForced true
|1337> end
|1338> 
|1339> *xyz 0 1
|1340> O   0.763384665  -2.034099301   0.225456516
|1341> H  -0.204115335  -2.203599301   0.236656516
[...]
ENERGY WEIGHTED DENSITY FINALIZATION
------------------------------------

Gathering the parts of the W-matrix              ...                                                      done
Forming the Z-density                            ... done
Transforming Z to the AO basis                   ... done
Calculating G(Z)                                 ... done
Finalizing the W-matrix                          ...                                                      done
Transforming W to the AO basis and storing       ... done

                *********************************************
                * UNRELAXED MP2 DENSITY POPULATION ANALYSIS *
                *********************************************

------------------------------------------------------------------------------
                           ORCA POPULATION ANALYSIS
------------------------------------------------------------------------------
Input electron density              ... 5h2o.temelso.etal.dset.2h2o.dset-orca.engrad-mp2.def2tzvp_job70.pmp2ur
BaseName (.gbw .S,...)              ... 5h2o.temelso.etal.dset.2h2o.dset-orca.engrad-mp2.def2tzvp_job70

                    ********************************
                    * MULLIKEN POPULATION ANALYSIS *
                    ********************************

-----------------------
MULLIKEN ATOMIC CHARGES
-----------------------
   0 O :   -0.720773
   1 H :    0.371203
   2 H :    0.338560
   3 O :   -0.707034
   4 H :    0.356126
   5 H :    0.361918
Sum of atomic charges:   -0.0000000

--------------------------------
MULLIKEN REDUCED ORBITAL CHARGES
--------------------------------
  0 O s       :     3.809067  s :     3.809067
      pz      :     1.648163  p :     4.855813
      px      :     1.898640
      py      :     1.309010
      dz2     :     0.009498  d :     0.051858
      dxz     :     0.008825
      dyz     :     0.017484
      dx2y2   :     0.008013
      dxy     :     0.008038
      f0      :     0.000445  f :     0.004035
      f+1     :     0.000436
      f-1     :     0.000589
      f+2     :     0.000768
      f-2     :     0.000537
      f+3     :     0.000613
      f-3     :     0.000647
  1 H s       :     0.579508  s :     0.579508
      pz      :     0.018495  p :     0.049290
      px      :     0.014560
      py      :     0.016235
  2 H s       :     0.615865  s :     0.615865
      pz      :     0.012731  p :     0.045575
      px      :     0.015507
      py      :     0.017337
  3 O s       :     3.804674  s :     3.804674
      pz      :     1.906210  p :     4.845766
      px      :     1.547720
      py      :     1.391836
      dz2     :     0.009095  d :     0.052502
      dxz     :     0.009147
      dyz     :     0.008795
      dx2y2   :     0.016972
      dxy     :     0.008494
      f0      :     0.000635  f :     0.004092
      f+1     :     0.000556
      f-1     :     0.000635
      f+2     :     0.000566
      f-2     :     0.000437
      f+3     :     0.000378
      f-3     :     0.000884
  4 H s       :     0.597233  s :     0.597233
      pz      :     0.015768  p :     0.046641
      px      :     0.011507
      py      :     0.019366
  5 H s       :     0.592990  s :     0.592990
      pz      :     0.015164  p :     0.045092
      px      :     0.018163
      py      :     0.011764


                     *******************************
                     * LOEWDIN POPULATION ANALYSIS *
                     *******************************

----------------------
LOEWDIN ATOMIC CHARGES
----------------------
   0 O :   -0.348182
   1 H :    0.155479
   2 H :    0.165192
   3 O :   -0.308220
   4 H :    0.164816
   5 H :    0.170916

-------------------------------
LOEWDIN REDUCED ORBITAL CHARGES
-------------------------------
  0 O s       :     3.469808  s :     3.469808
      pz      :     1.643623  p :     4.814135
      px      :     1.856825
      py      :     1.313687
      dz2     :     0.009089  d :     0.059405
      dxz     :     0.007748
      dyz     :     0.022712
      dx2y2   :     0.010852
      dxy     :     0.009005
      f0      :     0.000583  f :     0.004834
      f+1     :     0.000428
      f-1     :     0.000873
      f+2     :     0.000946
      f-2     :     0.000704
      f+3     :     0.000631
      f-3     :     0.000670
  1 H s       :     0.673527  s :     0.673527
      pz      :     0.071620  p :     0.170995
      px      :     0.045861
      py      :     0.053514
  2 H s       :     0.677593  s :     0.677593
      pz      :     0.042655  p :     0.157215
      px      :     0.045903
      py      :     0.068657
  3 O s       :     3.460665  s :     3.460665
      pz      :     1.845895  p :     4.781911
      px      :     1.546762
      py      :     1.389253
      dz2     :     0.009878  d :     0.060684
      dxz     :     0.008724
      dyz     :     0.009331
      dx2y2   :     0.022647
      dxy     :     0.010104
      f0      :     0.000601  f :     0.004960
      f+1     :     0.000558
      f-1     :     0.000689
      f+2     :     0.000774
      f-2     :     0.000499
      f+3     :     0.000516
      f-3     :     0.001323
  4 H s       :     0.671079  s :     0.671079
      pz      :     0.048380  p :     0.164105
      px      :     0.033018
      py      :     0.082706
  5 H s       :     0.668738  s :     0.668738
      pz      :     0.046574  p :     0.160346
      px      :     0.079609
      py      :     0.034163


                      *****************************
                      * MAYER POPULATION ANALYSIS *
                      *****************************

  NA   - Mulliken gross atomic population
  ZA   - Total nuclear charge
  QA   - Mulliken gross atomic charge
  VA   - Mayer's total valence
  BVA  - Mayer's bonded valence
  FA   - Mayer's free valence

  ATOM       NA         ZA         QA         VA         BVA        FA
  0 O      8.7208     8.0000    -0.7208     2.0562     1.6672     0.3890
  1 H      0.6288     1.0000     0.3712     0.8907     0.8452     0.0454
  2 H      0.6614     1.0000     0.3386     0.9035     0.8548     0.0487
  3 O      8.7070     8.0000    -0.7070     2.0773     1.6919     0.3854
  4 H      0.6439     1.0000     0.3561     0.8919     0.8461     0.0458
  5 H      0.6381     1.0000     0.3619     0.8895     0.8433     0.0463

  Mayer bond orders larger than 0.100000
B(  0-O ,  1-H ) :   0.8173 B(  0-O ,  2-H ) :   0.8499 B(  3-O ,  4-H ) :   0.8405 
B(  3-O ,  5-H ) :   0.8332 


                *******************************************
                * RELAXED MP2 DENSITY POPULATION ANALYSIS *
                *******************************************

------------------------------------------------------------------------------
                           ORCA POPULATION ANALYSIS
------------------------------------------------------------------------------
Input electron density              ... 5h2o.temelso.etal.dset.2h2o.dset-orca.engrad-mp2.def2tzvp_job70.pmp2re
BaseName (.gbw .S,...)              ... 5h2o.temelso.etal.dset.2h2o.dset-orca.engrad-mp2.def2tzvp_job70

                    ********************************
                    * MULLIKEN POPULATION ANALYSIS *
                    ********************************

-----------------------
MULLIKEN ATOMIC CHARGES
-----------------------
   0 O :   -0.703894
   1 H :    0.355930
   2 H :    0.332581
   3 O :   -0.688832
   4 H :    0.349782
   5 H :    0.354434
Sum of atomic charges:   -0.0000000

--------------------------------
MULLIKEN REDUCED ORBITAL CHARGES
--------------------------------
  0 O s       :     3.812640  s :     3.812640
      pz      :     1.641392  p :     4.837639
      px      :     1.892079
      py      :     1.304168
      dz2     :     0.009392  d :     0.049653
      dxz     :     0.008882
      dyz     :     0.016012
      dx2y2   :     0.007625
      dxy     :     0.007742
      f0      :     0.000439  f :     0.003962
      f+1     :     0.000434
      f-1     :     0.000570
      f+2     :     0.000747
      f-2     :     0.000528
      f+3     :     0.000604
      f-3     :     0.000641
  1 H s       :     0.594046  s :     0.594046
      pz      :     0.018451  p :     0.050023
      px      :     0.015422
      py      :     0.016150
  2 H s       :     0.621084  s :     0.621084
      pz      :     0.013414  p :     0.046335
      px      :     0.016465
      py      :     0.016456
  3 O s       :     3.808519  s :     3.808519
      pz      :     1.901223  p :     4.826014
      px      :     1.538734
      py      :     1.386057
      dz2     :     0.008917  d :     0.050286
      dxz     :     0.009082
      dyz     :     0.008606
      dx2y2   :     0.015520
      dxy     :     0.008161
      f0      :     0.000626  f :     0.004014
      f+1     :     0.000551
      f-1     :     0.000628
      f+2     :     0.000553
      f-2     :     0.000433
      f+3     :     0.000374
      f-3     :     0.000849
  4 H s       :     0.602841  s :     0.602841
      pz      :     0.016741  p :     0.047378
      px      :     0.012247
      py      :     0.018389
  5 H s       :     0.599802  s :     0.599802
      pz      :     0.016055  p :     0.045764
      px      :     0.017658
      py      :     0.012051


                     *******************************
                     * LOEWDIN POPULATION ANALYSIS *
                     *******************************

----------------------
LOEWDIN ATOMIC CHARGES
----------------------
   0 O :   -0.350352
   1 H :    0.151590
   2 H :    0.167117
   3 O :   -0.306662
   4 H :    0.166587
   5 H :    0.171720

-------------------------------
LOEWDIN REDUCED ORBITAL CHARGES
-------------------------------
  0 O s       :     3.471861  s :     3.471861
      pz      :     1.643115  p :     4.815417
      px      :     1.853179
      py      :     1.319123
      dz2     :     0.009047  d :     0.058218
      dxz     :     0.007842
      dyz     :     0.021927
      dx2y2   :     0.010559
      dxy     :     0.008842
      f0      :     0.000582  f :     0.004856
      f+1     :     0.000428
      f-1     :     0.000876
      f+2     :     0.000955
      f-2     :     0.000703
      f+3     :     0.000635
      f-3     :     0.000677
  1 H s       :     0.676790  s :     0.676790
      pz      :     0.071697  p :     0.171620
      px      :     0.046947
      py      :     0.052977
  2 H s       :     0.675416  s :     0.675416
      pz      :     0.043310  p :     0.157467
      px      :     0.046789
      py      :     0.067369
  3 O s       :     3.462513  s :     3.462513
      pz      :     1.841465  p :     4.779738
      px      :     1.546008
      py      :     1.392266
      dz2     :     0.009789  d :     0.059437
      dxz     :     0.008746
      dyz     :     0.009259
      dx2y2   :     0.021815
      dxy     :     0.009828
      f0      :     0.000605  f :     0.004974
      f+1     :     0.000561
      f-1     :     0.000695
      f+2     :     0.000773
      f-2     :     0.000499
      f+3     :     0.000510
      f-3     :     0.001330
  4 H s       :     0.669340  s :     0.669340
      pz      :     0.049283  p :     0.164074
      px      :     0.033400
      py      :     0.081390
  5 H s       :     0.667942  s :     0.667942
      pz      :     0.047484  p :     0.160338
      px      :     0.078962
      py      :     0.033892


                      *****************************
                      * MAYER POPULATION ANALYSIS *
                      *****************************

  NA   - Mulliken gross atomic population
  ZA   - Total nuclear charge
  QA   - Mulliken gross atomic charge
  VA   - Mayer's total valence
  BVA  - Mayer's bonded valence
  FA   - Mayer's free valence

  ATOM       NA         ZA         QA         VA         BVA        FA
  0 O      8.7039     8.0000    -0.7039     2.0653     1.6815     0.3839
  1 H      0.6441     1.0000     0.3559     0.9092     0.8642     0.0451
  2 H      0.6674     1.0000     0.3326     0.9077     0.8589     0.0488
  3 O      8.6888     8.0000    -0.6888     2.0963     1.7163     0.3800
  4 H      0.6502     1.0000     0.3498     0.8965     0.8507     0.0459
  5 H      0.6456     1.0000     0.3544     0.8972     0.8511     0.0461

  Mayer bond orders larger than 0.100000
B(  0-O ,  1-H ) :   0.8214 B(  0-O ,  2-H ) :   0.8536 B(  3-O ,  4-H ) :   0.8444 
B(  3-O ,  5-H ) :   0.8367 


----------------------------------
MP2 DERIVATIVE INTEGRAL GENERATION
----------------------------------


Input Wavefunction Amplitudes       ... 5h2o.temelso.etal.dset.2h2o.dset-orca.engrad-mp2.def2tzvp_job70.mp2tsaa.tmp
Input Correlated Electron Density   ... 5h2o.temelso.etal.dset.2h2o.dset-orca.engrad-mp2.def2tzvp_job70.pmp2re
Input Energy Weighted Density       ... 5h2o.temelso.etal.dset.2h2o.dset-orca.engrad-mp2.def2tzvp_job70.wmp2.tmp
Input SCF Electron Density          ... 5h2o.temelso.etal.dset.2h2o.dset-orca.engrad-mp2.def2tzvp_job70.scfp

One-Electron Terms    ...
                        ... One-Electron Terms done
Prescreening matrices              ... done

Batch handling in the gradient evaluation:
Memory available                      ... 8000.0 MB
Memory per occupied orbital in Q2     ...    0.5 MB
Memory per occupied orbital in Q3     ...    0.0 MB
Total memory requirement per |i>      ...    0.5 MB
Max. Number of orbitals possible      ...  16543
Number of orbitals treated per batch  ...      8
Number of batches to be done          ...      1
Batch   0: i=    2 ...     9

---------------------------------------
MP2 TOTAL ENERGY:     -152.633722985 Eh
---------------------------------------

The final MP2 gradient
  0:  -0.00558559   0.01305382   0.00968709
  1:   0.00228588   0.00492622  -0.00328590
  2:   0.00375161  -0.01737053  -0.00641531
  3:   0.00796716   0.00073216  -0.00299994
  4:  -0.00052258   0.00182989   0.00101343
  5:  -0.00789648  -0.00317156   0.00200064

-----------------------------------
NORM OF THE MP2 GRADIENT:  0.029099
-----------------------------------

-------------------------   --------------------
FINAL SINGLE POINT ENERGY      -152.633722984988
-------------------------   --------------------


                            ***************************************
                            *     ORCA property calculations      *
                            ***************************************

                                    ---------------------
                                    Active property flags
                                    ---------------------
   (+) Dipole Moment


------------------------------------------------------------------------------
                       ORCA ELECTRIC PROPERTIES CALCULATION
------------------------------------------------------------------------------

Dipole Moment Calculation                       ... on
Quadrupole Moment Calculation                   ... off
Polarizability Calculation                      ... off
GBWName                                         ... 5h2o.temelso.etal.dset.2h2o.dset-orca.engrad-mp2.def2tzvp_job70.gbw
Electron density file                           ... 5h2o.temelso.etal.dset.2h2o.dset-orca.engrad-mp2.def2tzvp_job70.scfp
The origin for moment calculation is the CENTER OF MASS  = (-0.000004,  0.000002 -0.000005)

-------------
DIPOLE MOMENT
-------------
                                X             Y             Z
Electronic contribution:      0.01843       0.06669      -0.01711
Nuclear contribution   :     -0.41760       0.26944      -0.51631
                        -----------------------------------------
Total Dipole Moment    :     -0.39917       0.33613      -0.53343
                        -----------------------------------------
Magnitude (a.u.)       :      0.74623
Magnitude (Debye)      :      1.89676



--------------------
Rotational spectrum 
--------------------
 
Rotational constants in cm-1:     6.730048     0.220635     0.219372 
Rotational constants in MHz : 201761.775187  6614.471471  6576.611742 

 Dipole components along the rotational axes: 
x,y,z [a.u.] :    -0.697457    -0.147705     0.220438 
x,y,z [Debye]:    -1.772796    -0.375437     0.560309 

 

                         *** MP2 UNRELAXED DENSITY ***

------------------------------------------------------------------------------
                       ORCA ELECTRIC PROPERTIES CALCULATION
------------------------------------------------------------------------------

Dipole Moment Calculation                       ... on
Quadrupole Moment Calculation                   ... off
Polarizability Calculation                      ... off
GBWName                                         ... 5h2o.temelso.etal.dset.2h2o.dset-orca.engrad-mp2.def2tzvp_job70.gbw
Electron density file                           ... 5h2o.temelso.etal.dset.2h2o.dset-orca.engrad-mp2.def2tzvp_job70.pmp2ur
The origin for moment calculation is the CENTER OF MASS  = (-0.000004,  0.000002 -0.000005)

-------------
DIPOLE MOMENT
-------------
                                X             Y             Z
Electronic contribution:      0.02199       0.06512      -0.01293
Nuclear contribution   :     -0.41760       0.26944      -0.51631
                        -----------------------------------------
Total Dipole Moment    :     -0.39561       0.33455      -0.52924
                        -----------------------------------------
Magnitude (a.u.)       :      0.74063
Magnitude (Debye)      :      1.88252



--------------------
Rotational spectrum 
--------------------
 
Rotational constants in cm-1:     6.730048     0.220635     0.219372 
Rotational constants in MHz : 201761.775187  6614.471471  6576.611742 

 Dipole components along the rotational axes: 
x,y,z [a.u.] :    -0.692583    -0.145687     0.218244 
x,y,z [Debye]:    -1.760405    -0.370307     0.554731 

 

                           *** MP2 RELAXED DENSITY ***

------------------------------------------------------------------------------
                       ORCA ELECTRIC PROPERTIES CALCULATION
------------------------------------------------------------------------------

Dipole Moment Calculation                       ... on
Quadrupole Moment Calculation                   ... off
Polarizability Calculation                      ... off
GBWName                                         ... 5h2o.temelso.etal.dset.2h2o.dset-orca.engrad-mp2.def2tzvp_job70.gbw
Electron density file                           ... 5h2o.temelso.etal.dset.2h2o.dset-orca.engrad-mp2.def2tzvp_job70.pmp2re
The origin for moment calculation is the CENTER OF MASS  = (-0.000004,  0.000002 -0.000005)

-------------
DIPOLE MOMENT
-------------
                                X             Y             Z
Electronic contribution:      0.02210       0.06413      -0.01241
Nuclear contribution   :     -0.41760       0.26944      -0.51631
                        -----------------------------------------
Total Dipole Moment    :     -0.39550       0.33356      -0.52872
                        -----------------------------------------
Magnitude (a.u.)       :      0.73975
Magnitude (Debye)      :      1.88028



--------------------
Rotational spectrum 
--------------------
 
Rotational constants in cm-1:     6.730048     0.220635     0.219372 
Rotational constants in MHz : 201761.775187  6614.471471  6576.611742 

 Dipole components along the rotational axes: 
x,y,z [a.u.] :    -0.691531    -0.146080     0.218332 
x,y,z [Debye]:    -1.757733    -0.371306     0.554957 

 

Timings for individual modules:

Sum of individual times         ...        5.406 sec (=   0.090 min)
GTO integral calculation        ...        0.840 sec (=   0.014 min)  15.5 %
SCF iterations                  ...        2.494 sec (=   0.042 min)  46.1 %
MP2 module                      ...        2.073 sec (=   0.035 min)  38.3 %



                             ****ORCA TERMINATED NORMALLY****
TOTAL RUN TIME: 0 days 0 hours 7 minutes 7 seconds 201 msec
