
                                 *****************
                                 * O   R   C   A *
                                 *****************

           --- An Ab Initio, DFT and Semiempirical electronic structure package ---

                  #######################################################
                  #                        -***-                        #
                  #          Department of theory and spectroscopy      #
                  #               Directorship: Frank Neese             #
                  #        Max Planck Institute fuer Kohlenforschung    #
                  #                Kaiser Wilhelm Platz 1               #
                  #                 D-45470 Muelheim/Ruhr               #
                  #                      Germany                        #
                  #                                                     #
                  #                  All rights reserved                #
                  #                        -***-                        #
                  #######################################################


                         Program Version 4.2.0 -  RELEASE  -


 With contributions from (in alphabetic order):
   Daniel Aravena         : Magnetic Suceptibility
   Michael Atanasov       : Ab Initio Ligand Field Theory (pilot matlab implementation)
   Alexander A. Auer      : GIAO ZORA, VPT2
   Ute Becker             : Parallelization
   Giovanni Bistoni       : ED, misc. LED, open-shell LED, HFLED
   Martin Brehm           : Molecular dynamics
   Dmytro Bykov           : SCF Hessian
   Vijay G. Chilkuri      : MRCI spin determinant printing, contributions to CSF-ICE
   Dipayan Datta          : RHF DLPNO-CCSD density
   Achintya Kumar Dutta   : EOM-CC, STEOM-CC
   Dmitry Ganyushin       : Spin-Orbit,Spin-Spin,Magnetic field MRCI
   Miquel Garcia          : C-PCM Hessian, Gaussian charge scheme
   Yang Guo               : DLPNO-NEVPT2, CIM, IAO-localization
   Andreas Hansen         : Spin unrestricted coupled pair/coupled cluster methods
   Benjamin Helmich-Paris : CASSCF linear response (MC-RPA)
   Lee Huntington         : MR-EOM, pCC
   Robert Izsak           : Overlap fitted RIJCOSX, COSX-SCS-MP3, EOM
   Christian Kollmar      : KDIIS, OOCD, Brueckner-CCSD(T), CCSD density
   Simone Kossmann        : Meta GGA functionals, TD-DFT gradient, OOMP2, MP2 Hessian
   Martin Krupicka        : AUTO-CI
   Lucas Lang             : DCDCAS
   Dagmar Lenk            : GEPOL surface, SMD
   Dimitrios Liakos       : Extrapolation schemes; Compound Job, initial MDCI parallelization
   Dimitrios Manganas     : Further ROCIS development; embedding schemes
   Dimitrios Pantazis     : SARC Basis sets
   Taras Petrenko         : DFT Hessian,TD-DFT gradient, ASA, ECA, R-Raman, ABS, FL, XAS/XES, NRVS
   Peter Pinski           : DLPNO-MP2, DLPNO-MP2 Gradient
   Christoph Reimann      : Effective Core Potentials
   Marius Retegan         : Local ZFS, SOC
   Christoph Riplinger    : Optimizer, TS searches, QM/MM, DLPNO-CCSD(T), (RO)-DLPNO pert. Triples
   Tobias Risthaus        : Range-separated hybrids, TD-DFT gradient, RPA, STAB
   Michael Roemelt        : Original ROCIS implementation
   Masaaki Saitow         : Open-shell DLPNO-CCSD energy and density
   Barbara Sandhoefer     : DKH picture change effects
   Avijit Sen             : IP-ROCIS
   Kantharuban Sivalingam : CASSCF convergence, NEVPT2, FIC-MRCI
   Bernardo de Souza      : ESD, SOC TD-DFT
   Georgi Stoychev        : AutoAux, RI-MP2 NMR
   Willem Van den Heuvel  : Paramagnetic NMR
   Boris Wezisla          : Elementary symmetry handling
   Frank Wennmohs         : Technical directorship


 We gratefully acknowledge several colleagues who have allowed us to
 interface, adapt or use parts of their codes:
   Stefan Grimme, W. Hujo, H. Kruse,             : VdW corrections, initial TS optimization,
                  C. Bannwarth                     DFT functionals, gCP, sTDA/sTD-DF
   Ed Valeev, F. Pavosevic, A. Kumar             : LibInt (2-el integral package), F12 methods
   Garnet Chan, S. Sharma, J. Yang, R. Olivares  : DMRG
   Ulf Ekstrom                                   : XCFun DFT Library
   Mihaly Kallay                                 : mrcc  (arbitrary order and MRCC methods)
   Andreas Klamt, Michael Diedenhofen            : otool_cosmo (COSMO solvation model)
   Jiri Pittner, Ondrej Demel                    : Mk-CCSD
   Frank Weinhold                                : gennbo (NPA and NBO analysis)
   Christopher J. Cramer and Donald G. Truhlar   : smd solvation model
   Lars Goerigk                                  : TD-DFT with DH, B97 family of functionals
   V. Asgeirsson, H. Jonsson                     : NEB implementation
   FAccTs GmbH                                   : IRC, NEB, NEB-TS, Multilevel, MM, QM/MM, CI optimization
   S Lehtola, MJT Oliveira, MAL Marques          : LibXC Library


 Your calculation uses the libint2 library for the computation of 2-el integrals
 For citations please refer to: http://libint.valeyev.net

 Your ORCA version has been built with support for libXC version: 4.2.3
 For citations please refer to: https://tddft.org/programs/libxc/

 This ORCA versions uses:
   CBLAS   interface :  Fast vector & matrix operations
   LAPACKE interface :  Fast linear algebra routines
   SCALAPACK package :  Parallel linear algebra routines


----- Orbital basis set information -----
Your calculation utilizes the basis: aug-cc-pVTZ 
    H, B-Ne : Obtained from the ccRepo (grant-hill.group.shef.ac.uk/ccrepo) Feb. 2017
              R. A. Kendall, T. H. Dunning, Jr., R. J. Harrison, J. Chem. Phys. 96, 6796 (1992)
         He : Obtained from the ccRepo (grant-hill.group.shef.ac.uk/ccrepo) Feb. 2017
              D. E. Woon, T. H. Dunning, Jr., J. Chem. Phys. 100, 2975 (1994)
  Li-Be, Na : Obtained from the ccRepo (grant-hill.group.shef.ac.uk/ccrepo) Feb. 2017
              B. P. Prascher, D. E. Woon, K. A. Peterson, T. H. Dunning, Jr., A. K. Wilson, Theor. Chem. Acc. 128, 69 (2011)
         Mg : Obtained from the Peterson Research Group Website (tyr0.chem.wsu.edu/~kipeters) Feb. 2017
              B. P. Prascher, D. E. Woon, K. A. Peterson, T. H. Dunning, Jr., A. K. Wilson, Theor. Chem. Acc. 128, 69 (2011)
      Al-Ar : Obtained from the ccRepo (grant-hill.group.shef.ac.uk/ccrepo) Feb. 2017
              D. E. Woon, T. H. Dunning, Jr., J. Chem. Phys. 98, 1358 (1993)
      Sc-Zn : Obtained from the ccRepo (grant-hill.group.shef.ac.uk/ccrepo) Feb. 2017
              N. B. Balabanov, K. A. Peterson, J. Chem. Phys. 123, 064107 (2005)
              N. B. Balabanov, K. A. Peterson, J. Chem. Phys. 125, 074110 (2006)
      Ga-Kr : Obtained from the ccRepo (grant-hill.group.shef.ac.uk/ccrepo) Feb. 2017
              A. K. Wilson, D. E. Woon, K. A. Peterson, T. H. Dunning, Jr., J. Chem. Phys. 110, 7667 (1999)
     Ag, Au : Obtained from the Peterson Research Group Website (tyr0.chem.wsu.edu/~kipeters) Feb. 2017
              K. A. Peterson, C. Puzzarini, Theor. Chem. Acc. 114, 283 (2005)

================================================================================
                                        WARNINGS
                       Please study these warnings very carefully!
================================================================================


WARNING: The frozen-core approximation for MP2-gradient calculations is turned on by default.

INFO   : the flag for use of LIBINT has been found!

----- Orbital basis set information -----
Your calculation utilizes the basis: aug-cc-pVTZ 
    H, B-Ne : Obtained from the ccRepo (grant-hill.group.shef.ac.uk/ccrepo) Feb. 2017
              R. A. Kendall, T. H. Dunning, Jr., R. J. Harrison, J. Chem. Phys. 96, 6796 (1992)
         He : Obtained from the ccRepo (grant-hill.group.shef.ac.uk/ccrepo) Feb. 2017
              D. E. Woon, T. H. Dunning, Jr., J. Chem. Phys. 100, 2975 (1994)
  Li-Be, Na : Obtained from the ccRepo (grant-hill.group.shef.ac.uk/ccrepo) Feb. 2017
              B. P. Prascher, D. E. Woon, K. A. Peterson, T. H. Dunning, Jr., A. K. Wilson, Theor. Chem. Acc. 128, 69 (2011)
         Mg : Obtained from the Peterson Research Group Website (tyr0.chem.wsu.edu/~kipeters) Feb. 2017
              B. P. Prascher, D. E. Woon, K. A. Peterson, T. H. Dunning, Jr., A. K. Wilson, Theor. Chem. Acc. 128, 69 (2011)
      Al-Ar : Obtained from the ccRepo (grant-hill.group.shef.ac.uk/ccrepo) Feb. 2017
              D. E. Woon, T. H. Dunning, Jr., J. Chem. Phys. 98, 1358 (1993)
      Sc-Zn : Obtained from the ccRepo (grant-hill.group.shef.ac.uk/ccrepo) Feb. 2017
              N. B. Balabanov, K. A. Peterson, J. Chem. Phys. 123, 064107 (2005)
              N. B. Balabanov, K. A. Peterson, J. Chem. Phys. 125, 074110 (2006)
      Ga-Kr : Obtained from the ccRepo (grant-hill.group.shef.ac.uk/ccrepo) Feb. 2017
              A. K. Wilson, D. E. Woon, K. A. Peterson, T. H. Dunning, Jr., J. Chem. Phys. 110, 7667 (1999)
     Ag, Au : Obtained from the Peterson Research Group Website (tyr0.chem.wsu.edu/~kipeters) Feb. 2017
              K. A. Peterson, C. Puzzarini, Theor. Chem. Acc. 114, 283 (2005)

================================================================================
                                        WARNINGS
                       Please study these warnings very carefully!
================================================================================


WARNING: The frozen-core approximation for MP2-gradient calculations is turned on by default.

INFO   : the flag for use of LIBINT has been found!

----- Orbital basis set information -----
Your calculation utilizes the basis: aug-cc-pVTZ 
    H, B-Ne : Obtained from the ccRepo (grant-hill.group.shef.ac.uk/ccrepo) Feb. 2017
              R. A. Kendall, T. H. Dunning, Jr., R. J. Harrison, J. Chem. Phys. 96, 6796 (1992)
         He : Obtained from the ccRepo (grant-hill.group.shef.ac.uk/ccrepo) Feb. 2017
              D. E. Woon, T. H. Dunning, Jr., J. Chem. Phys. 100, 2975 (1994)
  Li-Be, Na : Obtained from the ccRepo (grant-hill.group.shef.ac.uk/ccrepo) Feb. 2017
              B. P. Prascher, D. E. Woon, K. A. Peterson, T. H. Dunning, Jr., A. K. Wilson, Theor. Chem. Acc. 128, 69 (2011)
         Mg : Obtained from the Peterson Research Group Website (tyr0.chem.wsu.edu/~kipeters) Feb. 2017
              B. P. Prascher, D. E. Woon, K. A. Peterson, T. H. Dunning, Jr., A. K. Wilson, Theor. Chem. Acc. 128, 69 (2011)
      Al-Ar : Obtained from the ccRepo (grant-hill.group.shef.ac.uk/ccrepo) Feb. 2017
              D. E. Woon, T. H. Dunning, Jr., J. Chem. Phys. 98, 1358 (1993)
      Sc-Zn : Obtained from the ccRepo (grant-hill.group.shef.ac.uk/ccrepo) Feb. 2017
              N. B. Balabanov, K. A. Peterson, J. Chem. Phys. 123, 064107 (2005)
              N. B. Balabanov, K. A. Peterson, J. Chem. Phys. 125, 074110 (2006)
      Ga-Kr : Obtained from the ccRepo (grant-hill.group.shef.ac.uk/ccrepo) Feb. 2017
              A. K. Wilson, D. E. Woon, K. A. Peterson, T. H. Dunning, Jr., J. Chem. Phys. 110, 7667 (1999)
     Ag, Au : Obtained from the Peterson Research Group Website (tyr0.chem.wsu.edu/~kipeters) Feb. 2017
              K. A. Peterson, C. Puzzarini, Theor. Chem. Acc. 114, 283 (2005)

================================================================================
                                        WARNINGS
                       Please study these warnings very carefully!
================================================================================


WARNING: The frozen-core approximation for MP2-gradient calculations is turned on by default.

INFO   : the flag for use of LIBINT has been found!

----- Orbital basis set information -----
Your calculation utilizes the basis: aug-cc-pVTZ 
    H, B-Ne : Obtained from the ccRepo (grant-hill.group.shef.ac.uk/ccrepo) Feb. 2017
              R. A. Kendall, T. H. Dunning, Jr., R. J. Harrison, J. Chem. Phys. 96, 6796 (1992)
         He : Obtained from the ccRepo (grant-hill.group.shef.ac.uk/ccrepo) Feb. 2017
              D. E. Woon, T. H. Dunning, Jr., J. Chem. Phys. 100, 2975 (1994)
  Li-Be, Na : Obtained from the ccRepo (grant-hill.group.shef.ac.uk/ccrepo) Feb. 2017
              B. P. Prascher, D. E. Woon, K. A. Peterson, T. H. Dunning, Jr., A. K. Wilson, Theor. Chem. Acc. 128, 69 (2011)
         Mg : Obtained from the Peterson Research Group Website (tyr0.chem.wsu.edu/~kipeters) Feb. 2017
              B. P. Prascher, D. E. Woon, K. A. Peterson, T. H. Dunning, Jr., A. K. Wilson, Theor. Chem. Acc. 128, 69 (2011)
      Al-Ar : Obtained from the ccRepo (grant-hill.group.shef.ac.uk/ccrepo) Feb. 2017
              D. E. Woon, T. H. Dunning, Jr., J. Chem. Phys. 98, 1358 (1993)
      Sc-Zn : Obtained from the ccRepo (grant-hill.group.shef.ac.uk/ccrepo) Feb. 2017
              N. B. Balabanov, K. A. Peterson, J. Chem. Phys. 123, 064107 (2005)
              N. B. Balabanov, K. A. Peterson, J. Chem. Phys. 125, 074110 (2006)
      Ga-Kr : Obtained from the ccRepo (grant-hill.group.shef.ac.uk/ccrepo) Feb. 2017
              A. K. Wilson, D. E. Woon, K. A. Peterson, T. H. Dunning, Jr., J. Chem. Phys. 110, 7667 (1999)
     Ag, Au : Obtained from the Peterson Research Group Website (tyr0.chem.wsu.edu/~kipeters) Feb. 2017
              K. A. Peterson, C. Puzzarini, Theor. Chem. Acc. 114, 283 (2005)

================================================================================
                                        WARNINGS
                       Please study these warnings very carefully!
================================================================================


WARNING: The frozen-core approximation for MP2-gradient calculations is turned on by default.

INFO   : the flag for use of LIBINT has been found!

----- Orbital basis set information -----
Your calculation utilizes the basis: aug-cc-pVTZ 
    H, B-Ne : Obtained from the ccRepo (grant-hill.group.shef.ac.uk/ccrepo) Feb. 2017
              R. A. Kendall, T. H. Dunning, Jr., R. J. Harrison, J. Chem. Phys. 96, 6796 (1992)
         He : Obtained from the ccRepo (grant-hill.group.shef.ac.uk/ccrepo) Feb. 2017
              D. E. Woon, T. H. Dunning, Jr., J. Chem. Phys. 100, 2975 (1994)
  Li-Be, Na : Obtained from the ccRepo (grant-hill.group.shef.ac.uk/ccrepo) Feb. 2017
              B. P. Prascher, D. E. Woon, K. A. Peterson, T. H. Dunning, Jr., A. K. Wilson, Theor. Chem. Acc. 128, 69 (2011)
         Mg : Obtained from the Peterson Research Group Website (tyr0.chem.wsu.edu/~kipeters) Feb. 2017
              B. P. Prascher, D. E. Woon, K. A. Peterson, T. H. Dunning, Jr., A. K. Wilson, Theor. Chem. Acc. 128, 69 (2011)
      Al-Ar : Obtained from the ccRepo (grant-hill.group.shef.ac.uk/ccrepo) Feb. 2017
              D. E. Woon, T. H. Dunning, Jr., J. Chem. Phys. 98, 1358 (1993)
      Sc-Zn : Obtained from the ccRepo (grant-hill.group.shef.ac.uk/ccrepo) Feb. 2017
              N. B. Balabanov, K. A. Peterson, J. Chem. Phys. 123, 064107 (2005)
              N. B. Balabanov, K. A. Peterson, J. Chem. Phys. 125, 074110 (2006)
      Ga-Kr : Obtained from the ccRepo (grant-hill.group.shef.ac.uk/ccrepo) Feb. 2017
              A. K. Wilson, D. E. Woon, K. A. Peterson, T. H. Dunning, Jr., J. Chem. Phys. 110, 7667 (1999)
     Ag, Au : Obtained from the Peterson Research Group Website (tyr0.chem.wsu.edu/~kipeters) Feb. 2017
              K. A. Peterson, C. Puzzarini, Theor. Chem. Acc. 114, 283 (2005)

================================================================================
                                        WARNINGS
                       Please study these warnings very carefully!
================================================================================


WARNING: The frozen-core approximation for MP2-gradient calculations is turned on by default.

INFO   : the flag for use of LIBINT has been found!

----- Orbital basis set information -----
Your calculation utilizes the basis: aug-cc-pVTZ 
    H, B-Ne : Obtained from the ccRepo (grant-hill.group.shef.ac.uk/ccrepo) Feb. 2017
              R. A. Kendall, T. H. Dunning, Jr., R. J. Harrison, J. Chem. Phys. 96, 6796 (1992)
         He : Obtained from the ccRepo (grant-hill.group.shef.ac.uk/ccrepo) Feb. 2017
              D. E. Woon, T. H. Dunning, Jr., J. Chem. Phys. 100, 2975 (1994)
  Li-Be, Na : Obtained from the ccRepo (grant-hill.group.shef.ac.uk/ccrepo) Feb. 2017
              B. P. Prascher, D. E. Woon, K. A. Peterson, T. H. Dunning, Jr., A. K. Wilson, Theor. Chem. Acc. 128, 69 (2011)
         Mg : Obtained from the Peterson Research Group Website (tyr0.chem.wsu.edu/~kipeters) Feb. 2017
              B. P. Prascher, D. E. Woon, K. A. Peterson, T. H. Dunning, Jr., A. K. Wilson, Theor. Chem. Acc. 128, 69 (2011)
      Al-Ar : Obtained from the ccRepo (grant-hill.group.shef.ac.uk/ccrepo) Feb. 2017
              D. E. Woon, T. H. Dunning, Jr., J. Chem. Phys. 98, 1358 (1993)
      Sc-Zn : Obtained from the ccRepo (grant-hill.group.shef.ac.uk/ccrepo) Feb. 2017
              N. B. Balabanov, K. A. Peterson, J. Chem. Phys. 123, 064107 (2005)
              N. B. Balabanov, K. A. Peterson, J. Chem. Phys. 125, 074110 (2006)
      Ga-Kr : Obtained from the ccRepo (grant-hill.group.shef.ac.uk/ccrepo) Feb. 2017
              A. K. Wilson, D. E. Woon, K. A. Peterson, T. H. Dunning, Jr., J. Chem. Phys. 110, 7667 (1999)
     Ag, Au : Obtained from the Peterson Research Group Website (tyr0.chem.wsu.edu/~kipeters) Feb. 2017
              K. A. Peterson, C. Puzzarini, Theor. Chem. Acc. 114, 283 (2005)

================================================================================
                                        WARNINGS
                       Please study these warnings very carefully!
================================================================================


WARNING: The frozen-core approximation for MP2-gradient calculations is turned on by default.

INFO   : the flag for use of LIBINT has been found!

----- Orbital basis set information -----
Your calculation utilizes the basis: aug-cc-pVTZ 
    H, B-Ne : Obtained from the ccRepo (grant-hill.group.shef.ac.uk/ccrepo) Feb. 2017
              R. A. Kendall, T. H. Dunning, Jr., R. J. Harrison, J. Chem. Phys. 96, 6796 (1992)
         He : Obtained from the ccRepo (grant-hill.group.shef.ac.uk/ccrepo) Feb. 2017
              D. E. Woon, T. H. Dunning, Jr., J. Chem. Phys. 100, 2975 (1994)
  Li-Be, Na : Obtained from the ccRepo (grant-hill.group.shef.ac.uk/ccrepo) Feb. 2017
              B. P. Prascher, D. E. Woon, K. A. Peterson, T. H. Dunning, Jr., A. K. Wilson, Theor. Chem. Acc. 128, 69 (2011)
         Mg : Obtained from the Peterson Research Group Website (tyr0.chem.wsu.edu/~kipeters) Feb. 2017
              B. P. Prascher, D. E. Woon, K. A. Peterson, T. H. Dunning, Jr., A. K. Wilson, Theor. Chem. Acc. 128, 69 (2011)
      Al-Ar : Obtained from the ccRepo (grant-hill.group.shef.ac.uk/ccrepo) Feb. 2017
              D. E. Woon, T. H. Dunning, Jr., J. Chem. Phys. 98, 1358 (1993)
      Sc-Zn : Obtained from the ccRepo (grant-hill.group.shef.ac.uk/ccrepo) Feb. 2017
              N. B. Balabanov, K. A. Peterson, J. Chem. Phys. 123, 064107 (2005)
              N. B. Balabanov, K. A. Peterson, J. Chem. Phys. 125, 074110 (2006)
      Ga-Kr : Obtained from the ccRepo (grant-hill.group.shef.ac.uk/ccrepo) Feb. 2017
              A. K. Wilson, D. E. Woon, K. A. Peterson, T. H. Dunning, Jr., J. Chem. Phys. 110, 7667 (1999)
     Ag, Au : Obtained from the Peterson Research Group Website (tyr0.chem.wsu.edu/~kipeters) Feb. 2017
              K. A. Peterson, C. Puzzarini, Theor. Chem. Acc. 114, 283 (2005)

================================================================================
                                        WARNINGS
                       Please study these warnings very carefully!
================================================================================


WARNING: The frozen-core approximation for MP2-gradient calculations is turned on by default.

INFO   : the flag for use of LIBINT has been found!

----- Orbital basis set information -----
Your calculation utilizes the basis: aug-cc-pVTZ 
    H, B-Ne : Obtained from the ccRepo (grant-hill.group.shef.ac.uk/ccrepo) Feb. 2017
              R. A. Kendall, T. H. Dunning, Jr., R. J. Harrison, J. Chem. Phys. 96, 6796 (1992)
         He : Obtained from the ccRepo (grant-hill.group.shef.ac.uk/ccrepo) Feb. 2017
              D. E. Woon, T. H. Dunning, Jr., J. Chem. Phys. 100, 2975 (1994)
  Li-Be, Na : Obtained from the ccRepo (grant-hill.group.shef.ac.uk/ccrepo) Feb. 2017
              B. P. Prascher, D. E. Woon, K. A. Peterson, T. H. Dunning, Jr., A. K. Wilson, Theor. Chem. Acc. 128, 69 (2011)
         Mg : Obtained from the Peterson Research Group Website (tyr0.chem.wsu.edu/~kipeters) Feb. 2017
              B. P. Prascher, D. E. Woon, K. A. Peterson, T. H. Dunning, Jr., A. K. Wilson, Theor. Chem. Acc. 128, 69 (2011)
      Al-Ar : Obtained from the ccRepo (grant-hill.group.shef.ac.uk/ccrepo) Feb. 2017
              D. E. Woon, T. H. Dunning, Jr., J. Chem. Phys. 98, 1358 (1993)
      Sc-Zn : Obtained from the ccRepo (grant-hill.group.shef.ac.uk/ccrepo) Feb. 2017
              N. B. Balabanov, K. A. Peterson, J. Chem. Phys. 123, 064107 (2005)
              N. B. Balabanov, K. A. Peterson, J. Chem. Phys. 125, 074110 (2006)
      Ga-Kr : Obtained from the ccRepo (grant-hill.group.shef.ac.uk/ccrepo) Feb. 2017
              A. K. Wilson, D. E. Woon, K. A. Peterson, T. H. Dunning, Jr., J. Chem. Phys. 110, 7667 (1999)
     Ag, Au : Obtained from the Peterson Research Group Website (tyr0.chem.wsu.edu/~kipeters) Feb. 2017
              K. A. Peterson, C. Puzzarini, Theor. Chem. Acc. 114, 283 (2005)

================================================================================
                                        WARNINGS
                       Please study these warnings very carefully!
================================================================================


WARNING: The frozen-core approximation for MP2-gradient calculations is turned on by default.

INFO   : the flag for use of LIBINT has been found!

----- Orbital basis set information -----
Your calculation utilizes the basis: aug-cc-pVTZ 
    H, B-Ne : Obtained from the ccRepo (grant-hill.group.shef.ac.uk/ccrepo) Feb. 2017
              R. A. Kendall, T. H. Dunning, Jr., R. J. Harrison, J. Chem. Phys. 96, 6796 (1992)
         He : Obtained from the ccRepo (grant-hill.group.shef.ac.uk/ccrepo) Feb. 2017
              D. E. Woon, T. H. Dunning, Jr., J. Chem. Phys. 100, 2975 (1994)
  Li-Be, Na : Obtained from the ccRepo (grant-hill.group.shef.ac.uk/ccrepo) Feb. 2017
              B. P. Prascher, D. E. Woon, K. A. Peterson, T. H. Dunning, Jr., A. K. Wilson, Theor. Chem. Acc. 128, 69 (2011)
         Mg : Obtained from the Peterson Research Group Website (tyr0.chem.wsu.edu/~kipeters) Feb. 2017
              B. P. Prascher, D. E. Woon, K. A. Peterson, T. H. Dunning, Jr., A. K. Wilson, Theor. Chem. Acc. 128, 69 (2011)
      Al-Ar : Obtained from the ccRepo (grant-hill.group.shef.ac.uk/ccrepo) Feb. 2017
              D. E. Woon, T. H. Dunning, Jr., J. Chem. Phys. 98, 1358 (1993)
      Sc-Zn : Obtained from the ccRepo (grant-hill.group.shef.ac.uk/ccrepo) Feb. 2017
              N. B. Balabanov, K. A. Peterson, J. Chem. Phys. 123, 064107 (2005)
              N. B. Balabanov, K. A. Peterson, J. Chem. Phys. 125, 074110 (2006)
      Ga-Kr : Obtained from the ccRepo (grant-hill.group.shef.ac.uk/ccrepo) Feb. 2017
              A. K. Wilson, D. E. Woon, K. A. Peterson, T. H. Dunning, Jr., J. Chem. Phys. 110, 7667 (1999)
     Ag, Au : Obtained from the Peterson Research Group Website (tyr0.chem.wsu.edu/~kipeters) Feb. 2017
              K. A. Peterson, C. Puzzarini, Theor. Chem. Acc. 114, 283 (2005)

================================================================================
                                        WARNINGS
                       Please study these warnings very carefully!
================================================================================


WARNING: The frozen-core approximation for MP2-gradient calculations is turned on by default.

INFO   : the flag for use of LIBINT has been found!

----- Orbital basis set information -----
Your calculation utilizes the basis: aug-cc-pVTZ 
    H, B-Ne : Obtained from the ccRepo (grant-hill.group.shef.ac.uk/ccrepo) Feb. 2017
              R. A. Kendall, T. H. Dunning, Jr., R. J. Harrison, J. Chem. Phys. 96, 6796 (1992)
         He : Obtained from the ccRepo (grant-hill.group.shef.ac.uk/ccrepo) Feb. 2017
              D. E. Woon, T. H. Dunning, Jr., J. Chem. Phys. 100, 2975 (1994)
  Li-Be, Na : Obtained from the ccRepo (grant-hill.group.shef.ac.uk/ccrepo) Feb. 2017
              B. P. Prascher, D. E. Woon, K. A. Peterson, T. H. Dunning, Jr., A. K. Wilson, Theor. Chem. Acc. 128, 69 (2011)
         Mg : Obtained from the Peterson Research Group Website (tyr0.chem.wsu.edu/~kipeters) Feb. 2017
              B. P. Prascher, D. E. Woon, K. A. Peterson, T. H. Dunning, Jr., A. K. Wilson, Theor. Chem. Acc. 128, 69 (2011)
      Al-Ar : Obtained from the ccRepo (grant-hill.group.shef.ac.uk/ccrepo) Feb. 2017
              D. E. Woon, T. H. Dunning, Jr., J. Chem. Phys. 98, 1358 (1993)
      Sc-Zn : Obtained from the ccRepo (grant-hill.group.shef.ac.uk/ccrepo) Feb. 2017
              N. B. Balabanov, K. A. Peterson, J. Chem. Phys. 123, 064107 (2005)
              N. B. Balabanov, K. A. Peterson, J. Chem. Phys. 125, 074110 (2006)
      Ga-Kr : Obtained from the ccRepo (grant-hill.group.shef.ac.uk/ccrepo) Feb. 2017
              A. K. Wilson, D. E. Woon, K. A. Peterson, T. H. Dunning, Jr., J. Chem. Phys. 110, 7667 (1999)
     Ag, Au : Obtained from the Peterson Research Group Website (tyr0.chem.wsu.edu/~kipeters) Feb. 2017
              K. A. Peterson, C. Puzzarini, Theor. Chem. Acc. 114, 283 (2005)

================================================================================
                                        WARNINGS
                       Please study these warnings very carefully!
================================================================================


WARNING: The frozen-core approximation for MP2-gradient calculations is turned on by default.

INFO   : the flag for use of LIBINT has been found!

----- Orbital basis set information -----
Your calculation utilizes the basis: aug-cc-pVTZ 
    H, B-Ne : Obtained from the ccRepo (grant-hill.group.shef.ac.uk/ccrepo) Feb. 2017
              R. A. Kendall, T. H. Dunning, Jr., R. J. Harrison, J. Chem. Phys. 96, 6796 (1992)
         He : Obtained from the ccRepo (grant-hill.group.shef.ac.uk/ccrepo) Feb. 2017
              D. E. Woon, T. H. Dunning, Jr., J. Chem. Phys. 100, 2975 (1994)
  Li-Be, Na : Obtained from the ccRepo (grant-hill.group.shef.ac.uk/ccrepo) Feb. 2017
              B. P. Prascher, D. E. Woon, K. A. Peterson, T. H. Dunning, Jr., A. K. Wilson, Theor. Chem. Acc. 128, 69 (2011)
         Mg : Obtained from the Peterson Research Group Website (tyr0.chem.wsu.edu/~kipeters) Feb. 2017
              B. P. Prascher, D. E. Woon, K. A. Peterson, T. H. Dunning, Jr., A. K. Wilson, Theor. Chem. Acc. 128, 69 (2011)
      Al-Ar : Obtained from the ccRepo (grant-hill.group.shef.ac.uk/ccrepo) Feb. 2017
              D. E. Woon, T. H. Dunning, Jr., J. Chem. Phys. 98, 1358 (1993)
      Sc-Zn : Obtained from the ccRepo (grant-hill.group.shef.ac.uk/ccrepo) Feb. 2017
              N. B. Balabanov, K. A. Peterson, J. Chem. Phys. 123, 064107 (2005)
              N. B. Balabanov, K. A. Peterson, J. Chem. Phys. 125, 074110 (2006)
      Ga-Kr : Obtained from the ccRepo (grant-hill.group.shef.ac.uk/ccrepo) Feb. 2017
              A. K. Wilson, D. E. Woon, K. A. Peterson, T. H. Dunning, Jr., J. Chem. Phys. 110, 7667 (1999)
     Ag, Au : Obtained from the Peterson Research Group Website (tyr0.chem.wsu.edu/~kipeters) Feb. 2017
              K. A. Peterson, C. Puzzarini, Theor. Chem. Acc. 114, 283 (2005)

================================================================================
                                        WARNINGS
                       Please study these warnings very carefully!
================================================================================


WARNING: The frozen-core approximation for MP2-gradient calculations is turned on by default.

INFO   : the flag for use of LIBINT has been found!

----- Orbital basis set information -----
Your calculation utilizes the basis: aug-cc-pVTZ 
    H, B-Ne : Obtained from the ccRepo (grant-hill.group.shef.ac.uk/ccrepo) Feb. 2017
              R. A. Kendall, T. H. Dunning, Jr., R. J. Harrison, J. Chem. Phys. 96, 6796 (1992)
         He : Obtained from the ccRepo (grant-hill.group.shef.ac.uk/ccrepo) Feb. 2017
              D. E. Woon, T. H. Dunning, Jr., J. Chem. Phys. 100, 2975 (1994)
  Li-Be, Na : Obtained from the ccRepo (grant-hill.group.shef.ac.uk/ccrepo) Feb. 2017
              B. P. Prascher, D. E. Woon, K. A. Peterson, T. H. Dunning, Jr., A. K. Wilson, Theor. Chem. Acc. 128, 69 (2011)
         Mg : Obtained from the Peterson Research Group Website (tyr0.chem.wsu.edu/~kipeters) Feb. 2017
              B. P. Prascher, D. E. Woon, K. A. Peterson, T. H. Dunning, Jr., A. K. Wilson, Theor. Chem. Acc. 128, 69 (2011)
      Al-Ar : Obtained from the ccRepo (grant-hill.group.shef.ac.uk/ccrepo) Feb. 2017
              D. E. Woon, T. H. Dunning, Jr., J. Chem. Phys. 98, 1358 (1993)
      Sc-Zn : Obtained from the ccRepo (grant-hill.group.shef.ac.uk/ccrepo) Feb. 2017
              N. B. Balabanov, K. A. Peterson, J. Chem. Phys. 123, 064107 (2005)
              N. B. Balabanov, K. A. Peterson, J. Chem. Phys. 125, 074110 (2006)
      Ga-Kr : Obtained from the ccRepo (grant-hill.group.shef.ac.uk/ccrepo) Feb. 2017
              A. K. Wilson, D. E. Woon, K. A. Peterson, T. H. Dunning, Jr., J. Chem. Phys. 110, 7667 (1999)
     Ag, Au : Obtained from the Peterson Research Group Website (tyr0.chem.wsu.edu/~kipeters) Feb. 2017
              K. A. Peterson, C. Puzzarini, Theor. Chem. Acc. 114, 283 (2005)

================================================================================
                                        WARNINGS
                       Please study these warnings very carefully!
================================================================================


WARNING: The frozen-core approximation for MP2-gradient calculations is turned on by default.

INFO   : the flag for use of LIBINT has been found!

----- Orbital basis set information -----
Your calculation utilizes the basis: aug-cc-pVTZ 
    H, B-Ne : Obtained from the ccRepo (grant-hill.group.shef.ac.uk/ccrepo) Feb. 2017
              R. A. Kendall, T. H. Dunning, Jr., R. J. Harrison, J. Chem. Phys. 96, 6796 (1992)
         He : Obtained from the ccRepo (grant-hill.group.shef.ac.uk/ccrepo) Feb. 2017
              D. E. Woon, T. H. Dunning, Jr., J. Chem. Phys. 100, 2975 (1994)
  Li-Be, Na : Obtained from the ccRepo (grant-hill.group.shef.ac.uk/ccrepo) Feb. 2017
              B. P. Prascher, D. E. Woon, K. A. Peterson, T. H. Dunning, Jr., A. K. Wilson, Theor. Chem. Acc. 128, 69 (2011)
         Mg : Obtained from the Peterson Research Group Website (tyr0.chem.wsu.edu/~kipeters) Feb. 2017
              B. P. Prascher, D. E. Woon, K. A. Peterson, T. H. Dunning, Jr., A. K. Wilson, Theor. Chem. Acc. 128, 69 (2011)
      Al-Ar : Obtained from the ccRepo (grant-hill.group.shef.ac.uk/ccrepo) Feb. 2017
              D. E. Woon, T. H. Dunning, Jr., J. Chem. Phys. 98, 1358 (1993)
      Sc-Zn : Obtained from the ccRepo (grant-hill.group.shef.ac.uk/ccrepo) Feb. 2017
              N. B. Balabanov, K. A. Peterson, J. Chem. Phys. 123, 064107 (2005)
              N. B. Balabanov, K. A. Peterson, J. Chem. Phys. 125, 074110 (2006)
      Ga-Kr : Obtained from the ccRepo (grant-hill.group.shef.ac.uk/ccrepo) Feb. 2017
              A. K. Wilson, D. E. Woon, K. A. Peterson, T. H. Dunning, Jr., J. Chem. Phys. 110, 7667 (1999)
     Ag, Au : Obtained from the Peterson Research Group Website (tyr0.chem.wsu.edu/~kipeters) Feb. 2017
              K. A. Peterson, C. Puzzarini, Theor. Chem. Acc. 114, 283 (2005)

================================================================================
                                        WARNINGS
                       Please study these warnings very carefully!
================================================================================


WARNING: The frozen-core approximation for MP2-gradient calculations is turned on by default.

INFO   : the flag for use of LIBINT has been found!

----- Orbital basis set information -----
Your calculation utilizes the basis: aug-cc-pVTZ 
    H, B-Ne : Obtained from the ccRepo (grant-hill.group.shef.ac.uk/ccrepo) Feb. 2017
              R. A. Kendall, T. H. Dunning, Jr., R. J. Harrison, J. Chem. Phys. 96, 6796 (1992)
         He : Obtained from the ccRepo (grant-hill.group.shef.ac.uk/ccrepo) Feb. 2017
              D. E. Woon, T. H. Dunning, Jr., J. Chem. Phys. 100, 2975 (1994)
  Li-Be, Na : Obtained from the ccRepo (grant-hill.group.shef.ac.uk/ccrepo) Feb. 2017
              B. P. Prascher, D. E. Woon, K. A. Peterson, T. H. Dunning, Jr., A. K. Wilson, Theor. Chem. Acc. 128, 69 (2011)
         Mg : Obtained from the Peterson Research Group Website (tyr0.chem.wsu.edu/~kipeters) Feb. 2017
              B. P. Prascher, D. E. Woon, K. A. Peterson, T. H. Dunning, Jr., A. K. Wilson, Theor. Chem. Acc. 128, 69 (2011)
      Al-Ar : Obtained from the ccRepo (grant-hill.group.shef.ac.uk/ccrepo) Feb. 2017
              D. E. Woon, T. H. Dunning, Jr., J. Chem. Phys. 98, 1358 (1993)
      Sc-Zn : Obtained from the ccRepo (grant-hill.group.shef.ac.uk/ccrepo) Feb. 2017
              N. B. Balabanov, K. A. Peterson, J. Chem. Phys. 123, 064107 (2005)
              N. B. Balabanov, K. A. Peterson, J. Chem. Phys. 125, 074110 (2006)
      Ga-Kr : Obtained from the ccRepo (grant-hill.group.shef.ac.uk/ccrepo) Feb. 2017
              A. K. Wilson, D. E. Woon, K. A. Peterson, T. H. Dunning, Jr., J. Chem. Phys. 110, 7667 (1999)
     Ag, Au : Obtained from the Peterson Research Group Website (tyr0.chem.wsu.edu/~kipeters) Feb. 2017
              K. A. Peterson, C. Puzzarini, Theor. Chem. Acc. 114, 283 (2005)

================================================================================
                                        WARNINGS
                       Please study these warnings very carefully!
================================================================================


WARNING: The frozen-core approximation for MP2-gradient calculations is turned on by default.

INFO   : the flag for use of LIBINT has been found!

----- Orbital basis set information -----
Your calculation utilizes the basis: aug-cc-pVTZ 
    H, B-Ne : Obtained from the ccRepo (grant-hill.group.shef.ac.uk/ccrepo) Feb. 2017
              R. A. Kendall, T. H. Dunning, Jr., R. J. Harrison, J. Chem. Phys. 96, 6796 (1992)
         He : Obtained from the ccRepo (grant-hill.group.shef.ac.uk/ccrepo) Feb. 2017
              D. E. Woon, T. H. Dunning, Jr., J. Chem. Phys. 100, 2975 (1994)
  Li-Be, Na : Obtained from the ccRepo (grant-hill.group.shef.ac.uk/ccrepo) Feb. 2017
              B. P. Prascher, D. E. Woon, K. A. Peterson, T. H. Dunning, Jr., A. K. Wilson, Theor. Chem. Acc. 128, 69 (2011)
         Mg : Obtained from the Peterson Research Group Website (tyr0.chem.wsu.edu/~kipeters) Feb. 2017
              B. P. Prascher, D. E. Woon, K. A. Peterson, T. H. Dunning, Jr., A. K. Wilson, Theor. Chem. Acc. 128, 69 (2011)
      Al-Ar : Obtained from the ccRepo (grant-hill.group.shef.ac.uk/ccrepo) Feb. 2017
              D. E. Woon, T. H. Dunning, Jr., J. Chem. Phys. 98, 1358 (1993)
      Sc-Zn : Obtained from the ccRepo (grant-hill.group.shef.ac.uk/ccrepo) Feb. 2017
              N. B. Balabanov, K. A. Peterson, J. Chem. Phys. 123, 064107 (2005)
              N. B. Balabanov, K. A. Peterson, J. Chem. Phys. 125, 074110 (2006)
      Ga-Kr : Obtained from the ccRepo (grant-hill.group.shef.ac.uk/ccrepo) Feb. 2017
              A. K. Wilson, D. E. Woon, K. A. Peterson, T. H. Dunning, Jr., J. Chem. Phys. 110, 7667 (1999)
     Ag, Au : Obtained from the Peterson Research Group Website (tyr0.chem.wsu.edu/~kipeters) Feb. 2017
              K. A. Peterson, C. Puzzarini, Theor. Chem. Acc. 114, 283 (2005)

================================================================================
                                        WARNINGS
                       Please study these warnings very carefully!
================================================================================


WARNING: The frozen-core approximation for MP2-gradient calculations is turned on by default.

INFO   : the flag for use of LIBINT has been found!

----- Orbital basis set information -----
Your calculation utilizes the basis: aug-cc-pVTZ 
    H, B-Ne : Obtained from the ccRepo (grant-hill.group.shef.ac.uk/ccrepo) Feb. 2017
              R. A. Kendall, T. H. Dunning, Jr., R. J. Harrison, J. Chem. Phys. 96, 6796 (1992)
         He : Obtained from the ccRepo (grant-hill.group.shef.ac.uk/ccrepo) Feb. 2017
              D. E. Woon, T. H. Dunning, Jr., J. Chem. Phys. 100, 2975 (1994)
  Li-Be, Na : Obtained from the ccRepo (grant-hill.group.shef.ac.uk/ccrepo) Feb. 2017
              B. P. Prascher, D. E. Woon, K. A. Peterson, T. H. Dunning, Jr., A. K. Wilson, Theor. Chem. Acc. 128, 69 (2011)
         Mg : Obtained from the Peterson Research Group Website (tyr0.chem.wsu.edu/~kipeters) Feb. 2017
              B. P. Prascher, D. E. Woon, K. A. Peterson, T. H. Dunning, Jr., A. K. Wilson, Theor. Chem. Acc. 128, 69 (2011)
      Al-Ar : Obtained from the ccRepo (grant-hill.group.shef.ac.uk/ccrepo) Feb. 2017
              D. E. Woon, T. H. Dunning, Jr., J. Chem. Phys. 98, 1358 (1993)
      Sc-Zn : Obtained from the ccRepo (grant-hill.group.shef.ac.uk/ccrepo) Feb. 2017
              N. B. Balabanov, K. A. Peterson, J. Chem. Phys. 123, 064107 (2005)
              N. B. Balabanov, K. A. Peterson, J. Chem. Phys. 125, 074110 (2006)
      Ga-Kr : Obtained from the ccRepo (grant-hill.group.shef.ac.uk/ccrepo) Feb. 2017
              A. K. Wilson, D. E. Woon, K. A. Peterson, T. H. Dunning, Jr., J. Chem. Phys. 110, 7667 (1999)
     Ag, Au : Obtained from the Peterson Research Group Website (tyr0.chem.wsu.edu/~kipeters) Feb. 2017
              K. A. Peterson, C. Puzzarini, Theor. Chem. Acc. 114, 283 (2005)

================================================================================
                                        WARNINGS
                       Please study these warnings very carefully!
================================================================================


WARNING: The frozen-core approximation for MP2-gradient calculations is turned on by default.

INFO   : the flag for use of LIBINT has been found!

----- Orbital basis set information -----
Your calculation utilizes the basis: aug-cc-pVTZ 
    H, B-Ne : Obtained from the ccRepo (grant-hill.group.shef.ac.uk/ccrepo) Feb. 2017
              R. A. Kendall, T. H. Dunning, Jr., R. J. Harrison, J. Chem. Phys. 96, 6796 (1992)
         He : Obtained from the ccRepo (grant-hill.group.shef.ac.uk/ccrepo) Feb. 2017
              D. E. Woon, T. H. Dunning, Jr., J. Chem. Phys. 100, 2975 (1994)
  Li-Be, Na : Obtained from the ccRepo (grant-hill.group.shef.ac.uk/ccrepo) Feb. 2017
              B. P. Prascher, D. E. Woon, K. A. Peterson, T. H. Dunning, Jr., A. K. Wilson, Theor. Chem. Acc. 128, 69 (2011)
         Mg : Obtained from the Peterson Research Group Website (tyr0.chem.wsu.edu/~kipeters) Feb. 2017
              B. P. Prascher, D. E. Woon, K. A. Peterson, T. H. Dunning, Jr., A. K. Wilson, Theor. Chem. Acc. 128, 69 (2011)
      Al-Ar : Obtained from the ccRepo (grant-hill.group.shef.ac.uk/ccrepo) Feb. 2017
              D. E. Woon, T. H. Dunning, Jr., J. Chem. Phys. 98, 1358 (1993)
      Sc-Zn : Obtained from the ccRepo (grant-hill.group.shef.ac.uk/ccrepo) Feb. 2017
              N. B. Balabanov, K. A. Peterson, J. Chem. Phys. 123, 064107 (2005)
              N. B. Balabanov, K. A. Peterson, J. Chem. Phys. 125, 074110 (2006)
      Ga-Kr : Obtained from the ccRepo (grant-hill.group.shef.ac.uk/ccrepo) Feb. 2017
              A. K. Wilson, D. E. Woon, K. A. Peterson, T. H. Dunning, Jr., J. Chem. Phys. 110, 7667 (1999)
     Ag, Au : Obtained from the Peterson Research Group Website (tyr0.chem.wsu.edu/~kipeters) Feb. 2017
              K. A. Peterson, C. Puzzarini, Theor. Chem. Acc. 114, 283 (2005)

================================================================================
                                        WARNINGS
                       Please study these warnings very carefully!
================================================================================


WARNING: The frozen-core approximation for MP2-gradient calculations is turned on by default.

INFO   : the flag for use of LIBINT has been found!

----- Orbital basis set information -----
Your calculation utilizes the basis: aug-cc-pVTZ 
    H, B-Ne : Obtained from the ccRepo (grant-hill.group.shef.ac.uk/ccrepo) Feb. 2017
              R. A. Kendall, T. H. Dunning, Jr., R. J. Harrison, J. Chem. Phys. 96, 6796 (1992)
         He : Obtained from the ccRepo (grant-hill.group.shef.ac.uk/ccrepo) Feb. 2017
              D. E. Woon, T. H. Dunning, Jr., J. Chem. Phys. 100, 2975 (1994)
  Li-Be, Na : Obtained from the ccRepo (grant-hill.group.shef.ac.uk/ccrepo) Feb. 2017
              B. P. Prascher, D. E. Woon, K. A. Peterson, T. H. Dunning, Jr., A. K. Wilson, Theor. Chem. Acc. 128, 69 (2011)
         Mg : Obtained from the Peterson Research Group Website (tyr0.chem.wsu.edu/~kipeters) Feb. 2017
              B. P. Prascher, D. E. Woon, K. A. Peterson, T. H. Dunning, Jr., A. K. Wilson, Theor. Chem. Acc. 128, 69 (2011)
      Al-Ar : Obtained from the ccRepo (grant-hill.group.shef.ac.uk/ccrepo) Feb. 2017
              D. E. Woon, T. H. Dunning, Jr., J. Chem. Phys. 98, 1358 (1993)
      Sc-Zn : Obtained from the ccRepo (grant-hill.group.shef.ac.uk/ccrepo) Feb. 2017
              N. B. Balabanov, K. A. Peterson, J. Chem. Phys. 123, 064107 (2005)
              N. B. Balabanov, K. A. Peterson, J. Chem. Phys. 125, 074110 (2006)
      Ga-Kr : Obtained from the ccRepo (grant-hill.group.shef.ac.uk/ccrepo) Feb. 2017
              A. K. Wilson, D. E. Woon, K. A. Peterson, T. H. Dunning, Jr., J. Chem. Phys. 110, 7667 (1999)
     Ag, Au : Obtained from the Peterson Research Group Website (tyr0.chem.wsu.edu/~kipeters) Feb. 2017
              K. A. Peterson, C. Puzzarini, Theor. Chem. Acc. 114, 283 (2005)

================================================================================
                                        WARNINGS
                       Please study these warnings very carefully!
================================================================================


WARNING: The frozen-core approximation for MP2-gradient calculations is turned on by default.

INFO   : the flag for use of LIBINT has been found!

----- Orbital basis set information -----
Your calculation utilizes the basis: aug-cc-pVTZ 
    H, B-Ne : Obtained from the ccRepo (grant-hill.group.shef.ac.uk/ccrepo) Feb. 2017
              R. A. Kendall, T. H. Dunning, Jr., R. J. Harrison, J. Chem. Phys. 96, 6796 (1992)
         He : Obtained from the ccRepo (grant-hill.group.shef.ac.uk/ccrepo) Feb. 2017
              D. E. Woon, T. H. Dunning, Jr., J. Chem. Phys. 100, 2975 (1994)
  Li-Be, Na : Obtained from the ccRepo (grant-hill.group.shef.ac.uk/ccrepo) Feb. 2017
              B. P. Prascher, D. E. Woon, K. A. Peterson, T. H. Dunning, Jr., A. K. Wilson, Theor. Chem. Acc. 128, 69 (2011)
         Mg : Obtained from the Peterson Research Group Website (tyr0.chem.wsu.edu/~kipeters) Feb. 2017
              B. P. Prascher, D. E. Woon, K. A. Peterson, T. H. Dunning, Jr., A. K. Wilson, Theor. Chem. Acc. 128, 69 (2011)
      Al-Ar : Obtained from the ccRepo (grant-hill.group.shef.ac.uk/ccrepo) Feb. 2017
              D. E. Woon, T. H. Dunning, Jr., J. Chem. Phys. 98, 1358 (1993)
      Sc-Zn : Obtained from the ccRepo (grant-hill.group.shef.ac.uk/ccrepo) Feb. 2017
              N. B. Balabanov, K. A. Peterson, J. Chem. Phys. 123, 064107 (2005)
              N. B. Balabanov, K. A. Peterson, J. Chem. Phys. 125, 074110 (2006)
      Ga-Kr : Obtained from the ccRepo (grant-hill.group.shef.ac.uk/ccrepo) Feb. 2017
              A. K. Wilson, D. E. Woon, K. A. Peterson, T. H. Dunning, Jr., J. Chem. Phys. 110, 7667 (1999)
     Ag, Au : Obtained from the Peterson Research Group Website (tyr0.chem.wsu.edu/~kipeters) Feb. 2017
              K. A. Peterson, C. Puzzarini, Theor. Chem. Acc. 114, 283 (2005)

================================================================================
                                        WARNINGS
                       Please study these warnings very carefully!
================================================================================


WARNING: The frozen-core approximation for MP2-gradient calculations is turned on by default.

INFO   : the flag for use of LIBINT has been found!

----- Orbital basis set information -----
Your calculation utilizes the basis: aug-cc-pVTZ 
    H, B-Ne : Obtained from the ccRepo (grant-hill.group.shef.ac.uk/ccrepo) Feb. 2017
              R. A. Kendall, T. H. Dunning, Jr., R. J. Harrison, J. Chem. Phys. 96, 6796 (1992)
         He : Obtained from the ccRepo (grant-hill.group.shef.ac.uk/ccrepo) Feb. 2017
              D. E. Woon, T. H. Dunning, Jr., J. Chem. Phys. 100, 2975 (1994)
  Li-Be, Na : Obtained from the ccRepo (grant-hill.group.shef.ac.uk/ccrepo) Feb. 2017
              B. P. Prascher, D. E. Woon, K. A. Peterson, T. H. Dunning, Jr., A. K. Wilson, Theor. Chem. Acc. 128, 69 (2011)
         Mg : Obtained from the Peterson Research Group Website (tyr0.chem.wsu.edu/~kipeters) Feb. 2017
              B. P. Prascher, D. E. Woon, K. A. Peterson, T. H. Dunning, Jr., A. K. Wilson, Theor. Chem. Acc. 128, 69 (2011)
      Al-Ar : Obtained from the ccRepo (grant-hill.group.shef.ac.uk/ccrepo) Feb. 2017
              D. E. Woon, T. H. Dunning, Jr., J. Chem. Phys. 98, 1358 (1993)
      Sc-Zn : Obtained from the ccRepo (grant-hill.group.shef.ac.uk/ccrepo) Feb. 2017
              N. B. Balabanov, K. A. Peterson, J. Chem. Phys. 123, 064107 (2005)
              N. B. Balabanov, K. A. Peterson, J. Chem. Phys. 125, 074110 (2006)
      Ga-Kr : Obtained from the ccRepo (grant-hill.group.shef.ac.uk/ccrepo) Feb. 2017
              A. K. Wilson, D. E. Woon, K. A. Peterson, T. H. Dunning, Jr., J. Chem. Phys. 110, 7667 (1999)
     Ag, Au : Obtained from the Peterson Research Group Website (tyr0.chem.wsu.edu/~kipeters) Feb. 2017
              K. A. Peterson, C. Puzzarini, Theor. Chem. Acc. 114, 283 (2005)

================================================================================
                                        WARNINGS
                       Please study these warnings very carefully!
================================================================================


WARNING: The frozen-core approximation for MP2-gradient calculations is turned on by default.

INFO   : the flag for use of LIBINT has been found!

================================================================================
                                       INPUT FILE
================================================================================
NAME = 6h2o.temelso.etal.dset.2h2o-orca.engrad-mp2.augccpvtz-100.to.119.inp
|  1> # 6h2o.temelso.etal.dset.2h2o-orca.engrad-mp2.augccpvtz-100.to.119
|  2> ! MP2 aug-cc-pVTZ EnGrad TightSCF FrozenCore
|  3> 
|  4> %pal
|  5>     nprocs 12
|  6> end
|  7> 
|  8> %maxcore 8000
|  9> 
| 10> %scf
| 11>     ConvForced true
| 12> end
| 13> 
| 14> *xyz 0 1
| 15> O   1.165294945  -0.765037525  -0.215443983
| 16> H   0.355994945  -0.215937525  -0.092543983
| 17> H   1.218594945  -0.925137525  -1.165043983
| 18> O  -1.061505055   0.726362475   0.280156017
| 19> H  -1.315705055   1.505662475  -0.227843983
| 20> H  -1.906505055   0.249362475   0.458156017
| 21> *
| 22> 
| 23> 
| 24> $new_job
| 25> 
| 26> # 6h2o.temelso.etal.dset.2h2o-orca.engrad-mp2.augccpvtz-100.to.119
| 27> ! MP2 aug-cc-pVTZ EnGrad TightSCF FrozenCore
| 28> 
| 29> %pal
| 30>     nprocs 12
| 31> end
| 32> 
| 33> %maxcore 8000
| 34> 
| 35> %scf
| 36>     ConvForced true
| 37> end
| 38> 
| 39> *xyz 0 1
| 40> O   2.306081173  -0.062044811  -0.483898217
| 41> H   1.496781173   0.487055189  -0.360998217
| 42> H   2.359381173  -0.222144811  -1.433498217
| 43> O  -2.242918827   0.086655189   0.486801783
| 44> H  -2.171318827  -0.894744811   0.419001783
| 45> H  -2.687518827   0.239155189   1.329401783
| 46> *
| 47> 
| 48> 
| 49> $new_job
| 50> 
| 51> # 6h2o.temelso.etal.dset.2h2o-orca.engrad-mp2.augccpvtz-100.to.119
| 52> ! MP2 aug-cc-pVTZ EnGrad TightSCF FrozenCore
| 53> 
| 54> %pal
| 55>     nprocs 12
| 56> end
| 57> 
| 58> %maxcore 8000
| 59> 
| 60> %scf
| 61>     ConvForced true
| 62> end
| 63> 
| 64> *xyz 0 1
| 65> O  -1.050245580  -2.014847239   0.168765924
| 66> H  -1.098245580  -2.399947239  -0.714234076
| 67> H  -0.239245580  -2.402247239   0.573265924
| 68> O   1.069054420   2.041152761  -0.123534076
| 69> H   0.814854420   2.820452761  -0.631534076
| 70> H   0.224054420   1.564152761   0.054465924
| 71> *
| 72> 
| 73> 
| 74> $new_job
| 75> 
| 76> # 6h2o.temelso.etal.dset.2h2o-orca.engrad-mp2.augccpvtz-100.to.119
| 77> ! MP2 aug-cc-pVTZ EnGrad TightSCF FrozenCore
| 78> 
| 79> %pal
| 80>     nprocs 12
| 81> end
| 82> 
| 83> %maxcore 8000
| 84> 
| 85> %scf
| 86>     ConvForced true
| 87> end
| 88> 
| 89> *xyz 0 1
| 90> O   0.090540649  -1.311854525  -0.099688310
| 91> H   0.042540649  -1.696954525  -0.982688310
| 92> H   0.901540649  -1.699254525   0.304811690
| 93> O  -0.112359351   1.401445475   0.083111690
| 94> H  -0.040759351   0.420045475   0.015311690
| 95> H  -0.556959351   1.553945475   0.925711690
| 96> *
| 97> 
| 98> 
| 99> $new_job
|100> 
|101> # 6h2o.temelso.etal.dset.2h2o-orca.engrad-mp2.augccpvtz-100.to.119
|102> ! MP2 aug-cc-pVTZ EnGrad TightSCF FrozenCore
|103> 
|104> %pal
|105>     nprocs 12
|106> end
|107> 
|108> %maxcore 8000
|109> 
|110> %scf
|111>     ConvForced true
|112> end
|113> 
|114> *xyz 0 1
|115> O   1.202281403   0.686080422  -0.249992255
|116> H   0.948081403   1.465380422  -0.757992255
|117> H   0.357281403   0.209080422  -0.071992255
|118> O  -1.119918597  -0.656619578   0.225107745
|119> H  -1.048318597  -1.638019578   0.157307745
|120> H  -1.564518597  -0.504119578   1.067707745
|121> *
|122> 
|123> 
|124> $new_job
|125> 
|126> # 6h2o.temelso.etal.dset.2h2o-orca.engrad-mp2.augccpvtz-100.to.119
|127> ! MP2 aug-cc-pVTZ EnGrad TightSCF FrozenCore
|128> 
|129> %pal
|130>     nprocs 12
|131> end
|132> 
|133> %maxcore 8000
|134> 
|135> %scf
|136>     ConvForced true
|137> end
|138> 
|139> *xyz 0 1
|140> O  -0.018357566   1.402983708   0.157433481
|141> H  -0.132557566   1.544583708   1.105133481
|142> H  -0.039757566   0.424283708   0.046133481
|143> O   0.028942434  -1.303216292  -0.164566519
|144> H   0.744042434  -1.687216292  -0.723866519
|145> H  -0.739757566  -1.865416292  -0.314166519
|146> *
|147> 
|148> 
|149> $new_job
|150> 
|151> # 6h2o.temelso.etal.dset.2h2o-orca.engrad-mp2.augccpvtz-100.to.119
|152> ! MP2 aug-cc-pVTZ EnGrad TightSCF FrozenCore
|153> 
|154> %pal
|155>     nprocs 12
|156> end
|157> 
|158> %maxcore 8000
|159> 
|160> %scf
|161>     ConvForced true
|162> end
|163> 
|164> *xyz 0 1
|165> O  -1.061245272   1.895403463   0.898772975
|166> H  -1.175445272   2.037003463   1.846472975
|167> H  -1.082645272   0.916703463   0.787472975
|168> O   1.017954728  -1.868896537  -0.907327025
|169> H   1.914754728  -1.565796537  -0.628227025
|170> H   1.030554728  -1.808696537  -1.869927025
|171> *
|172> 
|173> 
|174> $new_job
|175> 
|176> # 6h2o.temelso.etal.dset.2h2o-orca.engrad-mp2.augccpvtz-100.to.119
|177> ! MP2 aug-cc-pVTZ EnGrad TightSCF FrozenCore
|178> 
|179> %pal
|180>     nprocs 12
|181> end
|182> 
|183> %maxcore 8000
|184> 
|185> %scf
|186>     ConvForced true
|187> end
|188> 
|189> *xyz 0 1
|190> O  -1.079838711  -0.544556320   0.528420414
|191> H  -1.194038711  -0.402956320   1.476120414
|192> H  -1.101238711  -1.523256320   0.417120414
|193> O   1.146861289   0.600943680  -0.546479586
|194> H   0.895261289   0.839243680  -1.446679586
|195> H   0.336061289   0.191843680  -0.159879586
|196> *
|197> 
|198> 
|199> $new_job
|200> 
|201> # 6h2o.temelso.etal.dset.2h2o-orca.engrad-mp2.augccpvtz-100.to.119
|202> ! MP2 aug-cc-pVTZ EnGrad TightSCF FrozenCore
|203> 
|204> %pal
|205>     nprocs 12
|206> end
|207> 
|208> %maxcore 8000
|209> 
|210> %scf
|211>     ConvForced true
|212> end
|213> 
|214> *xyz 0 1
|215> O  -2.284017297   1.456969070   0.476781302
|216> H  -2.398217297   1.598569070   1.424481302
|217> H  -2.305417297   0.478269070   0.365481302
|218> O   2.270282703  -1.441130930  -0.578618698
|219> H   2.627582703  -1.854030930   0.216981302
|220> H   2.294082703  -0.474230930  -0.390318698
|221> *
|222> 
|223> 
|224> $new_job
|225> 
|226> # 6h2o.temelso.etal.dset.2h2o-orca.engrad-mp2.augccpvtz-100.to.119
|227> ! MP2 aug-cc-pVTZ EnGrad TightSCF FrozenCore
|228> 
|229> %pal
|230>     nprocs 12
|231> end
|232> 
|233> %maxcore 8000
|234> 
|235> %scf
|236>     ConvForced true
|237> end
|238> 
|239> *xyz 0 1
|240> O  -2.253767333   0.104987577   0.246560191
|241> H  -2.367967333   0.246587577   1.194260191
|242> H  -2.275167333  -0.873712423   0.135260191
|243> O   2.266332667  -0.120512423  -0.271539809
|244> H   1.449632667   0.383587577  -0.496539809
|245> H   2.994032667   0.489987577  -0.436439809
|246> *
|247> 
|248> 
|249> $new_job
|250> 
|251> # 6h2o.temelso.etal.dset.2h2o-orca.engrad-mp2.augccpvtz-100.to.119
|252> ! MP2 aug-cc-pVTZ EnGrad TightSCF FrozenCore
|253> 
|254> %pal
|255>     nprocs 12
|256> end
|257> 
|258> %maxcore 8000
|259> 
|260> %scf
|261>     ConvForced true
|262> end
|263> 
|264> *xyz 0 1
|265> O  -1.039889033   0.545355284   0.780999181
|266> H  -0.324789033   0.161355284   0.221699181
|267> H  -1.808589033  -0.016844716   0.631399181
|268> O   0.992010967  -0.512744716  -0.703100819
|269> H   1.888810967  -0.209644716  -0.424000819
|270> H   1.004610967  -0.452544716  -1.665700819
|271> *
|272> 
|273> 
|274> $new_job
|275> 
|276> # 6h2o.temelso.etal.dset.2h2o-orca.engrad-mp2.augccpvtz-100.to.119
|277> ! MP2 aug-cc-pVTZ EnGrad TightSCF FrozenCore
|278> 
|279> %pal
|280>     nprocs 12
|281> end
|282> 
|283> %maxcore 8000
|284> 
|285> %scf
|286>     ConvForced true
|287> end
|288> 
|289> *xyz 0 1
|290> O  -1.058482472  -1.894604499   0.410646620
|291> H  -0.343382472  -2.278604499  -0.148653380
|292> H  -1.827182472  -2.456804499   0.261046620
|293> O   1.120917528   1.957095501  -0.342253380
|294> H   0.869317528   2.195395501  -1.242453380
|295> H   0.310117528   1.547995501   0.044346620
|296> *
|297> 
|298> 
|299> $new_job
|300> 
|301> # 6h2o.temelso.etal.dset.2h2o-orca.engrad-mp2.augccpvtz-100.to.119
|302> ! MP2 aug-cc-pVTZ EnGrad TightSCF FrozenCore
|303> 
|304> %pal
|305>     nprocs 12
|306> end
|307> 
|308> %maxcore 8000
|309> 
|310> %scf
|311>     ConvForced true
|312> end
|313> 
|314> *xyz 0 1
|315> O  -2.262661058   0.106920891   0.359007509
|316> H  -1.547561058  -0.277079109  -0.200292491
|317> H  -3.031361058  -0.455279109   0.209407509
|318> O   2.244338942  -0.084979109  -0.374392491
|319> H   2.601638942  -0.497879109   0.421207509
|320> H   2.268138942   0.881920891  -0.186092491
|321> *
|322> 
|323> 
|324> $new_job
|325> 
|326> # 6h2o.temelso.etal.dset.2h2o-orca.engrad-mp2.augccpvtz-100.to.119
|327> ! MP2 aug-cc-pVTZ EnGrad TightSCF FrozenCore
|328> 
|329> %pal
|330>     nprocs 12
|331> end
|332> 
|333> %maxcore 8000
|334> 
|335> %scf
|336>     ConvForced true
|337> end
|338> 
|339> *xyz 0 1
|340> O  -2.232411094  -1.245060602   0.128786398
|341> H  -1.517311094  -1.629060602  -0.430513602
|342> H  -3.001111094  -1.807260602  -0.020813602
|343> O   2.240388906   1.235639398  -0.067313602
|344> H   1.423688906   1.739739398  -0.292313602
|345> H   2.968088906   1.846139398  -0.232213602
|346> *
|347> 
|348> 
|349> $new_job
|350> 
|351> # 6h2o.temelso.etal.dset.2h2o-orca.engrad-mp2.augccpvtz-100.to.119
|352> ! MP2 aug-cc-pVTZ EnGrad TightSCF FrozenCore
|353> 
|354> %pal
|355>     nprocs 12
|356> end
|357> 
|358> %maxcore 8000
|359> 
|360> %scf
|361>     ConvForced true
|362> end
|363> 
|364> *xyz 0 1
|365> O  -0.069470178  -2.460284744  -0.332113886
|366> H   0.827329822  -2.157184744  -0.053013886
|367> H  -0.056870178  -2.400084744  -1.294713886
|368> O   0.078029822   2.449515256   0.399086114
|369> H  -0.173570178   2.687815256  -0.501113886
|370> H  -0.732770178   2.040415256   0.785686114
|371> *
|372> 
|373> 
|374> $new_job
|375> 
|376> # 6h2o.temelso.etal.dset.2h2o-orca.engrad-mp2.augccpvtz-100.to.119
|377> ! MP2 aug-cc-pVTZ EnGrad TightSCF FrozenCore
|378> 
|379> %pal
|380>     nprocs 12
|381> end
|382> 
|383> %maxcore 8000
|384> 
|385> %scf
|386>     ConvForced true
|387> end
|388> 
|389> *xyz 0 1
|390> O  -1.273648764  -0.458759354  -0.383752998
|391> H  -0.376848764  -0.155659354  -0.104652998
|392> H  -1.261048764  -0.398559354  -1.346352998
|393> O   1.201451236   0.407440646   0.366947002
|394> H   1.558751236  -0.005459354   1.162547002
|395> H   1.225251236   1.374340646   0.555247002
|396> *
|397> 
|398> 
|399> $new_job
|400> 
|401> # 6h2o.temelso.etal.dset.2h2o-orca.engrad-mp2.augccpvtz-100.to.119
|402> ! MP2 aug-cc-pVTZ EnGrad TightSCF FrozenCore
|403> 
|404> %pal
|405>     nprocs 12
|406> end
|407> 
|408> %maxcore 8000
|409> 
|410> %scf
|411>     ConvForced true
|412> end
|413> 
|414> *xyz 0 1
|415> O  -1.243398800  -1.810740847  -0.613974108
|416> H  -0.346598800  -1.507640847  -0.334874108
|417> H  -1.230798800  -1.750540847  -1.576574108
|418> O   1.197501200   1.728059153   0.674025892
|419> H   0.380801200   2.232159153   0.449025892
|420> H   1.925201200   2.338559153   0.509125892
|421> *
|422> 
|423> 
|424> $new_job
|425> 
|426> # 6h2o.temelso.etal.dset.2h2o-orca.engrad-mp2.augccpvtz-100.to.119
|427> ! MP2 aug-cc-pVTZ EnGrad TightSCF FrozenCore
|428> 
|429> %pal
|430>     nprocs 12
|431> end
|432> 
|433> %maxcore 8000
|434> 
|435> %scf
|436>     ConvForced true
|437> end
|438> 
|439> *xyz 0 1
|440> O  -1.144742202   2.011080863  -0.022905559
|441> H  -1.396342202   2.249380863  -0.923105559
|442> H  -1.955542202   1.601980863   0.363694441
|443> O   1.182857798  -2.032519137  -0.003405559
|444> H   1.540157798  -2.445419137   0.792194441
|445> H   1.206657798  -1.065619137   0.184894441
|446> *
|447> 
|448> 
|449> $new_job
|450> 
|451> # 6h2o.temelso.etal.dset.2h2o-orca.engrad-mp2.augccpvtz-100.to.119
|452> ! MP2 aug-cc-pVTZ EnGrad TightSCF FrozenCore
|453> 
|454> %pal
|455>     nprocs 12
|456> end
|457> 
|458> %maxcore 8000
|459> 
|460> %scf
|461>     ConvForced true
|462> end
|463> 
|464> *xyz 0 1
|465> O  -1.114492238   0.659099370  -0.253126669
|466> H  -1.366092238   0.897399370  -1.153326669
|467> H  -1.925292238   0.249999370   0.133473331
|468> O   1.178907762  -0.711900630   0.303673331
|469> H   0.362207762  -0.207800630   0.078673331
|470> H   1.906607762  -0.101400630   0.138773331
|471> *
|472> 
|473> 
|474> $new_job
|475> 
|476> # 6h2o.temelso.etal.dset.2h2o-orca.engrad-mp2.augccpvtz-100.to.119
|477> ! MP2 aug-cc-pVTZ EnGrad TightSCF FrozenCore
|478> 
|479> %pal
|480>     nprocs 12
|481> end
|482> 
|483> %maxcore 8000
|484> 
|485> %scf
|486>     ConvForced true
|487> end
|488> 
|489> *xyz 0 1
|490> O   0.008929176  -1.382975240  -0.285265781
|491> H   0.366229176  -1.795875240   0.510334219
|492> H   0.032729176  -0.416075240  -0.096965781
|493> O  -0.025270824   1.289624760   0.252034219
|494> H  -0.841970824   1.793724760   0.027034219
|495> H   0.702429176   1.900124760   0.087134219
|496> *
|497> 
|498>                          ****END OF INPUT****
================================================================================


                 $$$$$$$$$$$$$$$$$$$$$$$$$$$$$$$$$$$$$$$$$$$$$$ 
                 $ THERE ARE 20 JOBS TO BE PROCESSED THIS RUN $
                 $$$$$$$$$$$$$$$$$$$$$$$$$$$$$$$$$$$$$$$$$$$$$$ 




                 $$$$$$$$$$$$$$$$  JOB NUMBER  1 $$$$$$$$$$$$$$


                     *******************************
                     * Energy+Gradient Calculation *
                     *******************************

---------------------------------
CARTESIAN COORDINATES (ANGSTROEM)
---------------------------------
  O      1.165295   -0.765038   -0.215444
  H      0.355995   -0.215938   -0.092544
  H      1.218595   -0.925138   -1.165044
  O     -1.061505    0.726362    0.280156
  H     -1.315705    1.505662   -0.227844
  H     -1.906505    0.249362    0.458156

----------------------------
CARTESIAN COORDINATES (A.U.)
----------------------------
  NO LB      ZA    FRAG     MASS         X           Y           Z
   0 O     8.0000    0    15.999    2.202088   -1.445711   -0.407130
   1 H     1.0000    0     1.008    0.672733   -0.408063   -0.174883
   2 H     1.0000    0     1.008    2.302811   -1.748257   -2.201614
   3 O     8.0000    0    15.999   -2.005954    1.372626    0.529418
   4 H     1.0000    0     1.008   -2.486322    2.845290   -0.430563
   5 H     1.0000    0     1.008   -3.602772    0.471227    0.865789

--------------------------------
INTERNAL COORDINATES (ANGSTROEM)
--------------------------------
 O      0   0   0     0.000000000000     0.00000000     0.00000000
 H      1   0   0     0.985688444692     0.00000000     0.00000000
 H      1   2   0     0.964475536237   105.10611738     0.00000000
 O      2   1   3     1.742452533069   174.78448702   167.84248845
 H      4   2   1     0.964359958729   122.60028407   147.19895326
 H      4   2   1     0.986528256058   118.28877579   281.19963326

---------------------------
INTERNAL COORDINATES (A.U.)
---------------------------
 O      0   0   0     0.000000000000     0.00000000     0.00000000
 H      1   0   0     1.862681213839     0.00000000     0.00000000
 H      1   2   0     1.822594626355   105.10611738     0.00000000
 O      2   1   3     3.292758088859   174.78448702   167.84248845
 H      4   2   1     1.822376216518   122.60028407   147.19895326
 H      4   2   1     1.864268227324   118.28877579   281.19963326

---------------------
BASIS SET INFORMATION
---------------------
There are 2 groups of distinct atoms

 Group   1 Type O   : 19s6p3d2f contracted to 5s4p3d2f pattern {88111/3111/111/11}
 Group   2 Type H   : 6s3p2d contracted to 4s3p2d pattern {3111/111/11}

Atom   0O    basis set group =>   1
Atom   1H    basis set group =>   2
Atom   2H    basis set group =>   2
Atom   3O    basis set group =>   1
Atom   4H    basis set group =>   2
Atom   5H    basis set group =>   2


           ************************************************************
           *        Program running with 12 parallel MPI-processes    *
           *              working on a common directory               *
           ************************************************************
------------------------------------------------------------------------------
                           ORCA GTO INTEGRAL CALCULATION
------------------------------------------------------------------------------

                         BASIS SET STATISTICS AND STARTUP INFO

 # of primitive gaussian shells          ...  104
 # of primitive gaussian functions       ...  232
 # of contracted shells                  ...   64
 # of contracted basis functions         ...  184
 Highest angular momentum                ...    3
 Maximum contraction depth               ...    8
 Integral package used                   ... LIBINT
 Integral threshhold            Thresh   ...  2.500e-11
 Primitive cut-off              TCut     ...  2.500e-12


------------------------------ INTEGRAL EVALUATION ----------------------------


 * One electron integrals 
 Pre-screening matrix                    ... done
 Shell pair data                         ... done (   0.000 sec)



           ************************************************************
           *        Program running with 12 parallel MPI-processes    *
           *              working on a common directory               *
           ************************************************************
-------------------------------------------------------------------------------
                                 ORCA SCF
-------------------------------------------------------------------------------

------------
SCF SETTINGS
------------
Hamiltonian:
 Ab initio Hamiltonian  Method          .... Hartree-Fock(GTOs)


General Settings:
 Integral files         IntName         .... 6h2o.temelso.etal.dset.2h2o-orca.engrad-mp2.augccpvtz-100.to.119
 Hartree-Fock type      HFTyp           .... RHF
 Total Charge           Charge          ....    0
 Multiplicity           Mult            ....    1
 Number of Electrons    NEL             ....   20
 Basis Dimension        Dim             ....  184
 Nuclear Repulsion      ENuc            ....     37.5131427150 Eh

Convergence Acceleration:
 DIIS                   CNVDIIS         .... on
   Start iteration      DIISMaxIt       ....    12
   Startup error        DIISStart       ....  0.200000
   # of expansion vecs  DIISMaxEq       ....     5
   Bias factor          DIISBfac        ....   1.050
   Max. coefficient     DIISMaxC        ....  10.000
 Newton-Raphson         CNVNR           .... off
 SOSCF                  CNVSOSCF        .... on
   Start iteration      SOSCFMaxIt      ....   150
   Startup grad/error   SOSCFStart      ....  0.003300
 Level Shifting         CNVShift        .... on
   Level shift para.    LevelShift      ....    0.2500
   Turn off err/grad.   ShiftErr        ....    0.0010
 Zerner damping         CNVZerner       .... off
 Static damping         CNVDamp         .... on
   Fraction old density DampFac         ....    0.7000
   Max. Damping (<1)    DampMax         ....    0.9800
   Min. Damping (>=0)   DampMin         ....    0.0000
   Turn off err/grad.   DampErr         ....    0.1000
 Fernandez-Rico         CNVRico         .... off

SCF Procedure:
 Maximum # iterations   MaxIter         ....   125
 SCF integral mode      SCFMode         .... Direct
   Integral package                     .... LIBINT
 Reset frequency        DirectResetFreq ....    20
 Integral Threshold     Thresh          ....  2.500e-11 Eh
 Primitive CutOff       TCut            ....  2.500e-12 Eh

Convergence Tolerance:
 Convergence Check Mode ConvCheckMode   .... Total+1el-Energy
 Convergence forced     ConvForced      .... 1
 Energy Change          TolE            ....  1.000e-08 Eh
 1-El. energy change                    ....  1.000e-05 Eh
 Orbital Gradient       TolG            ....  1.000e-05
 Orbital Rotation angle TolX            ....  1.000e-05
 DIIS Error             TolErr          ....  5.000e-07


Diagonalization of the overlap matrix:
Smallest eigenvalue                        ... 2.411e-04
Time for diagonalization                   ...    0.004 sec
Threshold for overlap eigenvalues          ... 1.000e-08
Number of eigenvalues below threshold      ... 0
Time for construction of square roots      ...    0.002 sec
Total time needed                          ...    0.006 sec

-------------------
DFT GRID GENERATION
-------------------

General Integration Accuracy     IntAcc      ...  4.340
Radial Grid Type                 RadialGrid  ... Gauss-Chebyshev
Angular Grid (max. acc.)         AngularGrid ... Lebedev-110
Angular grid pruning method      GridPruning ... 3 (G Style)
Weight generation scheme         WeightScheme... Becke
Basis function cutoff            BFCut       ...    1.0000e-11
Integration weight cutoff        WCut        ...    1.0000e-14
Grids for H and He will be reduced by one unit

# of grid points (after initial pruning)     ...   6608 (   0.0 sec)
# of grid points (after weights+screening)   ...   6481 (   0.0 sec)
nearest neighbour list constructed           ...    0.0 sec
Grid point re-assignment to atoms done       ...    0.0 sec
Grid point division into batches done        ...    0.0 sec
Reduced shell lists constructed in    0.0 sec

Total number of grid points                  ...     6481
Total number of batches                      ...      104
Average number of points per batch           ...       62
Average number of grid points per atom       ...     1080
Average number of shells per batch           ...    44.80 (70.00%)
Average number of basis functions per batch  ...   126.00 (68.48%)
Average number of large shells per batch     ...    39.20 (87.50%)
Average number of large basis fcns per batch ...   110.00 (87.30%)
Maximum spatial batch extension              ...  16.28, 15.94, 16.41 au
Average spatial batch extension              ...   0.63,  0.67,  0.54 au

Time for grid setup =    0.011 sec

------------------------------
INITIAL GUESS: MODEL POTENTIAL
------------------------------
Loading Hartree-Fock densities                     ... done
Calculating cut-offs                               ... done
Setting up the integral package                    ... done
Initializing the effective Hamiltonian             ... done
Starting the Coulomb interaction                   ... done (   0.0 sec)
Reading the grid                                   ... done
Mapping shells                                     ... done
Starting the XC term evaluation                    ... done (   0.0 sec)
Transforming the Hamiltonian                       ... done (   0.0 sec)
Diagonalizing the Hamiltonian                      ... done (   0.0 sec)
Back transforming the eigenvectors                 ... done (   0.0 sec)
Now organizing SCF variables                       ... done
                      ------------------
                      INITIAL GUESS DONE (   0.1 sec)
                      ------------------
--------------
SCF ITERATIONS
--------------
ITER       Energy         Delta-E        Max-DP      RMS-DP      [F,P]     Damp
               ***  Starting incremental Fock matrix formation  ***
  0   -151.9312048852   0.000000000000 0.02747610  0.00071441  0.3929705 0.7000
  1   -152.0058755548  -0.074670669574 0.01816870  0.00048563  0.2309832 0.7000
                               ***Turning on DIIS***
  2   -152.0450515043  -0.039175949515 0.01181912  0.00027494  0.1233370 0.7000
  3   -152.3496121135  -0.304560609234 0.03047835  0.00053064  0.0849662 0.0000
  4   -152.0724434007   0.277168712814 0.00465944  0.00009547  0.0122968 0.0000
                      *** Initiating the SOSCF procedure ***
                           *** Shutting down DIIS ***
                      *** Re-Reading the Fockian *** 
                      *** Removing any level shift *** 
ITER      Energy       Delta-E        Grad      Rot      Max-DP    RMS-DP
  5   -152.11882924  -0.0463858412  0.001246  0.001246  0.002502  0.000048
               *** Restarting incremental Fock matrix formation ***
  6   -152.12049115  -0.0016619080  0.000376  0.000583  0.001122  0.000021
  7   -152.12050252  -0.0000113729  0.000240  0.000362  0.001010  0.000018
  8   -152.12050508  -0.0000025594  0.000089  0.000058  0.000220  0.000003
  9   -152.12050524  -0.0000001610  0.000026  0.000021  0.000018  0.000001
 10   -152.12050526  -0.0000000159  0.000003  0.000004  0.000005  0.000000
                  ***Gradient check signals convergence***
              ***Rediagonalizing the Fockian in SOSCF/NRSCF***

               *****************************************************
               *                     SUCCESS                       *
               *           SCF CONVERGED AFTER  11 CYCLES          *
               *****************************************************


----------------
TOTAL SCF ENERGY
----------------

Total Energy       :         -152.12050526 Eh           -4139.40939 eV

Components:
Nuclear Repulsion  :           37.51314271 Eh            1020.78451 eV
Electronic Energy  :         -189.63364797 Eh           -5160.19390 eV
One Electron Energy:         -284.45186698 Eh           -7740.32881 eV
Two Electron Energy:           94.81821901 Eh            2580.13491 eV

Virial components:
Potential Energy   :         -303.95798738 Eh           -8271.11733 eV
Kinetic Energy     :          151.83748212 Eh            4131.70794 eV
Virial Ratio       :            2.00186399


---------------
SCF CONVERGENCE
---------------

  Last Energy change         ...   -7.0665e-10  Tolerance :   1.0000e-08
  Last MAX-Density change    ...    2.0215e-06  Tolerance :   1.0000e-07
  Last RMS-Density change    ...    7.0515e-08  Tolerance :   5.0000e-09
  Last Orbital Gradient      ...    1.2918e-06  Tolerance :   1.0000e-05
  Last Orbital Rotation      ...    2.2723e-06  Tolerance :   1.0000e-05

             **** THE GBW FILE WAS UPDATED (6h2o.temelso.etal.dset.2h2o-orca.engrad-mp2.augccpvtz-100.to.119.gbw) ****
             **** DENSITY FILE WAS UPDATED (6h2o.temelso.etal.dset.2h2o-orca.engrad-mp2.augccpvtz-100.to.119.scfp) ****
             **** ENERGY FILE WAS UPDATED (6h2o.temelso.etal.dset.2h2o-orca.engrad-mp2.augccpvtz-100.to.119.en.tmp) ****
             **** THE GBW FILE WAS UPDATED (6h2o.temelso.etal.dset.2h2o-orca.engrad-mp2.augccpvtz-100.to.119.gbw) ****
             **** DENSITY FILE WAS UPDATED (6h2o.temelso.etal.dset.2h2o-orca.engrad-mp2.augccpvtz-100.to.119.scfp) ****
----------------
ORBITAL ENERGIES
----------------

  NO   OCC          E(Eh)            E(eV) 
   0   2.0000     -20.601423      -560.5932 
   1   2.0000     -20.525449      -558.5259 
   2   2.0000      -1.380872       -37.5754 
   3   2.0000      -1.305033       -35.5117 
   4   2.0000      -0.742316       -20.1994 
   5   2.0000      -0.693061       -18.8592 
   6   2.0000      -0.609472       -16.5846 
   7   2.0000      -0.557519       -15.1709 
   8   2.0000      -0.523357       -14.2413 
   9   2.0000      -0.469221       -12.7682 
  10   0.0000       0.018291         0.4977 
  11   0.0000       0.042536         1.1575 
  12   0.0000       0.048309         1.3145 
  13   0.0000       0.074170         2.0183 
  14   0.0000       0.125038         3.4024 
  15   0.0000       0.141917         3.8618 
  16   0.0000       0.162665         4.4263 
  17   0.0000       0.171271         4.6605 
  18   0.0000       0.176297         4.7973 
  19   0.0000       0.189721         5.1626 
  20   0.0000       0.209895         5.7115 
  21   0.0000       0.225013         6.1229 
  22   0.0000       0.240861         6.5542 
  23   0.0000       0.257378         7.0036 
  24   0.0000       0.259279         7.0553 
  25   0.0000       0.280040         7.6203 
  26   0.0000       0.305229         8.3057 
  27   0.0000       0.307659         8.3718 
  28   0.0000       0.364058         9.9065 
  29   0.0000       0.370851        10.0914 
  30   0.0000       0.380318        10.3490 
  31   0.0000       0.405271        11.0280 
  32   0.0000       0.422470        11.4960 
  33   0.0000       0.434575        11.8254 
  34   0.0000       0.446095        12.1389 
  35   0.0000       0.461166        12.5490 
  36   0.0000       0.498090        13.5537 
  37   0.0000       0.586939        15.9714 
  38   0.0000       0.595933        16.2161 
  39   0.0000       0.605489        16.4762 
  40   0.0000       0.679222        18.4826 
  41   0.0000       0.698767        19.0144 
  42   0.0000       0.721066        19.6212 
  43   0.0000       0.737108        20.0577 
  44   0.0000       0.748814        20.3763 
  45   0.0000       0.767848        20.8942 
  46   0.0000       0.775440        21.1008 
  47   0.0000       0.799088        21.7443 
  48   0.0000       0.826600        22.4929 
  49   0.0000       0.857077        23.3222 
  50   0.0000       0.895758        24.3748 
  51   0.0000       0.906451        24.6658 
  52   0.0000       0.917289        24.9607 
  53   0.0000       0.947499        25.7828 
  54   0.0000       0.950846        25.8738 
  55   0.0000       0.958231        26.0748 
  56   0.0000       0.972441        26.4615 
  57   0.0000       0.976436        26.5702 
  58   0.0000       0.996898        27.1270 
  59   0.0000       1.002081        27.2680 
  60   0.0000       1.019315        27.7370 
  61   0.0000       1.031512        28.0689 
  62   0.0000       1.046061        28.4648 
  63   0.0000       1.060217        28.8500 
  64   0.0000       1.065508        28.9939 
  65   0.0000       1.141099        31.0509 
  66   0.0000       1.150426        31.3047 
  67   0.0000       1.175387        31.9839 
  68   0.0000       1.202291        32.7160 
  69   0.0000       1.227538        33.4030 
  70   0.0000       1.250583        34.0301 
  71   0.0000       1.283369        34.9222 
  72   0.0000       1.287864        35.0446 
  73   0.0000       1.353143        36.8209 
  74   0.0000       1.449018        39.4298 
  75   0.0000       1.481248        40.3068 
  76   0.0000       1.500083        40.8193 
  77   0.0000       1.567866        42.6638 
  78   0.0000       1.574683        42.8493 
  79   0.0000       1.600465        43.5509 
  80   0.0000       1.651716        44.9455 
  81   0.0000       1.668869        45.4122 
  82   0.0000       1.709645        46.5218 
  83   0.0000       1.739737        47.3407 
  84   0.0000       1.846475        50.2451 
  85   0.0000       1.858829        50.5813 
  86   0.0000       1.941764        52.8381 
  87   0.0000       1.986128        54.0453 
  88   0.0000       2.015315        54.8395 
  89   0.0000       2.099086        57.1190 
  90   0.0000       2.119254        57.6678 
  91   0.0000       2.273535        61.8660 
  92   0.0000       2.302739        62.6607 
  93   0.0000       2.350518        63.9609 
  94   0.0000       2.365095        64.3575 
  95   0.0000       2.417649        65.7876 
  96   0.0000       2.441927        66.4482 
  97   0.0000       2.471413        67.2506 
  98   0.0000       2.478472        67.4426 
  99   0.0000       2.511031        68.3286 
 100   0.0000       2.522713        68.6465 
 101   0.0000       2.565255        69.8041 
 102   0.0000       2.585764        70.3622 
 103   0.0000       2.655719        72.2658 
 104   0.0000       2.681646        72.9713 
 105   0.0000       2.714741        73.8719 
 106   0.0000       2.732527        74.3558 
 107   0.0000       2.755433        74.9792 
 108   0.0000       2.794198        76.0340 
 109   0.0000       2.841321        77.3163 
 110   0.0000       2.871081        78.1261 
 111   0.0000       2.924035        79.5670 
 112   0.0000       2.962665        80.6182 
 113   0.0000       3.022098        82.2355 
 114   0.0000       3.100491        84.3686 
 115   0.0000       3.157758        85.9270 
 116   0.0000       3.728647       101.4616 
 117   0.0000       3.748379       101.9986 
 118   0.0000       3.829612       104.2090 
 119   0.0000       4.030261       109.6690 
 120   0.0000       4.074590       110.8752 
 121   0.0000       4.129728       112.3756 
 122   0.0000       4.181478       113.7838 
 123   0.0000       4.186738       113.9269 
 124   0.0000       4.224849       114.9640 
 125   0.0000       4.266295       116.0918 
 126   0.0000       4.294612       116.8623 
 127   0.0000       4.326035       117.7174 
 128   0.0000       4.348397       118.3259 
 129   0.0000       4.402676       119.8029 
 130   0.0000       4.434611       120.6719 
 131   0.0000       4.479142       121.8836 
 132   0.0000       4.484506       122.0296 
 133   0.0000       4.502660       122.5236 
 134   0.0000       4.537179       123.4629 
 135   0.0000       4.580417       124.6395 
 136   0.0000       4.630551       126.0037 
 137   0.0000       4.670677       127.0956 
 138   0.0000       4.777685       130.0074 
 139   0.0000       4.830846       131.4540 
 140   0.0000       4.871171       132.5513 
 141   0.0000       5.015458       136.4775 
[...]
      dxz     :     0.000703
      dyz     :     0.011440
      dx2y2   :     0.007455
      dxy     :     0.025561
  3 O s       :     3.852263  s :     3.852263
      pz      :     1.815483  p :     4.517286
      px      :     1.204778
      py      :     1.497024
      dz2     :     0.007790  d :     0.039357
      dxz     :     0.007171
      dyz     :     0.007064
      dx2y2   :     0.002813
      dxy     :     0.014520
      f0      :     0.000810  f :     0.004869
      f+1     :     0.000940
      f-1     :     0.000691
      f+2     :     0.000508
      f-2     :     0.000751
      f+3     :     0.000712
      f-3     :     0.000456
  4 H s       :     0.653110  s :     0.653110
      pz      :     0.041862  p :     0.094805
      px      :     0.021302
      py      :     0.031641
      dz2     :     0.002097  d :     0.018946
      dxz     :     0.006729
      dyz     :     0.001193
      dx2y2   :     0.004501
      dxy     :     0.004426
  5 H s       :     0.666462  s :     0.666462
      pz      :     0.046144  p :     0.100197
      px      :     0.022251
      py      :     0.031802
      dz2     :     0.001533  d :     0.020751
      dxz     :     0.006695
      dyz     :     0.002490
      dx2y2   :     0.007334
      dxy     :     0.002698


                     *******************************
                     * LOEWDIN POPULATION ANALYSIS *
                     *******************************

----------------------
LOEWDIN ATOMIC CHARGES
----------------------
   0 O :    1.010216
   1 H :   -0.511213
   2 H :   -0.730305
   3 O :    1.085611
   4 H :   -0.403899
   5 H :   -0.450410

-------------------------------
LOEWDIN REDUCED ORBITAL CHARGES
-------------------------------
  0 O s       :     3.009251  s :     3.009251
      pz      :     1.287646  p :     3.862320
      px      :     1.380837
      py      :     1.193837
      dz2     :     0.022214  d :     0.100163
      dxz     :     0.014061
      dyz     :     0.026004
      dx2y2   :     0.028563
      dxy     :     0.009321
      f0      :     0.001842  f :     0.018049
      f+1     :     0.002931
      f-1     :     0.004575
      f+2     :     0.001768
      f-2     :     0.002449
      f+3     :     0.000757
      f-3     :     0.003727
  1 H s       :     0.591695  s :     0.591695
      pz      :     0.233011  p :     0.559012
      px      :     0.181193
      py      :     0.144809
      dz2     :     0.115554  d :     0.360506
      dxz     :     0.088048
      dyz     :     0.078614
      dx2y2   :     0.045270
      dxy     :     0.033020
  2 H s       :     0.551071  s :     0.551071
      pz      :     0.152347  p :     0.645525
      px      :     0.153521
      py      :     0.339656
      dz2     :     0.051790  d :     0.533710
      dxz     :     0.005472
      dyz     :     0.175018
      dx2y2   :     0.152689
      dxy     :     0.148740
  3 O s       :     2.958981  s :     2.958981
      pz      :     1.397430  p :     3.798616
      px      :     1.132376
      py      :     1.268809
      dz2     :     0.023420  d :     0.133055
      dxz     :     0.010959
      dyz     :     0.012897
      dx2y2   :     0.028239
      dxy     :     0.057541
      f0      :     0.001990  f :     0.023737
      f+1     :     0.002547
      f-1     :     0.002135
      f+2     :     0.001563
      f-2     :     0.003135
      f+3     :     0.002910
      f-3     :     0.009456
  4 H s       :     0.563296  s :     0.563296
      pz      :     0.154995  p :     0.497433
      px      :     0.186876
      py      :     0.155562
      dz2     :     0.040169  d :     0.343169
      dxz     :     0.080534
      dyz     :     0.033891
      dx2y2   :     0.098776
      dxy     :     0.089799
  5 H s       :     0.574285  s :     0.574285
      pz      :     0.162125  p :     0.524228
      px      :     0.182115
      py      :     0.179988
      dz2     :     0.036990  d :     0.351898
      dxz     :     0.068884
      dyz     :     0.049023
      dx2y2   :     0.113134
      dxy     :     0.083867


                      *****************************
                      * MAYER POPULATION ANALYSIS *
                      *****************************

  NA   - Mulliken gross atomic population
  ZA   - Total nuclear charge
  QA   - Mulliken gross atomic charge
  VA   - Mayer's total valence
  BVA  - Mayer's bonded valence
  FA   - Mayer's free valence

  ATOM       NA         ZA         QA         VA         BVA        FA
  0 O      8.5093     8.0000    -0.5093     2.1870     1.8075     0.3796
  1 H      0.8086     1.0000     0.1914     1.0786     1.0095     0.0691
  2 H      0.7140     1.0000     0.2860     0.9975     0.9338     0.0637
  3 O      8.4138     8.0000    -0.4138     2.2595     1.8857     0.3738
  4 H      0.7669     1.0000     0.2331     1.0308     0.9638     0.0670
  5 H      0.7874     1.0000     0.2126     1.0463     0.9798     0.0665

  Mayer bond orders larger than 0.100000
B(  0-O ,  1-H ) :   0.9675 B(  0-O ,  2-H ) :   0.8761 B(  3-O ,  4-H ) :   0.9356 
B(  3-O ,  5-H ) :   0.9532 


                *******************************************
                * RELAXED MP2 DENSITY POPULATION ANALYSIS *
                *******************************************

------------------------------------------------------------------------------
                           ORCA POPULATION ANALYSIS
------------------------------------------------------------------------------
Input electron density              ... 6h2o.temelso.etal.dset.2h2o-orca.engrad-mp2.augccpvtz-100.to.119_job20.pmp2re
BaseName (.gbw .S,...)              ... 6h2o.temelso.etal.dset.2h2o-orca.engrad-mp2.augccpvtz-100.to.119_job20

                    ********************************
                    * MULLIKEN POPULATION ANALYSIS *
                    ********************************

-----------------------
MULLIKEN ATOMIC CHARGES
-----------------------
   0 O :   -0.504836
   1 H :    0.194176
   2 H :    0.257081
   3 O :   -0.386722
   4 H :    0.229482
   5 H :    0.210818
Sum of atomic charges:    0.0000000

--------------------------------
MULLIKEN REDUCED ORBITAL CHARGES
--------------------------------
  0 O s       :     3.883364  s :     3.883364
      pz      :     1.470988  p :     4.563974
      px      :     1.755922
      py      :     1.337064
      dz2     :     0.012383  d :     0.052424
      dxz     :     0.009367
      dyz     :     0.011137
      dx2y2   :     0.012498
      dxy     :     0.007040
      f0      :     0.000636  f :     0.005073
      f+1     :     0.000896
      f-1     :     0.000597
      f+2     :     0.000658
      f-2     :     0.000737
      f+3     :     0.000627
      f-3     :     0.000922
  1 H s       :     0.674352  s :     0.674352
      pz      :     0.027872  p :     0.116751
      px      :     0.055049
      py      :     0.033830
      dz2     :     0.005087  d :     0.014720
      dxz     :     0.003349
      dyz     :     0.001500
      dx2y2   :     0.002971
      dxy     :     0.001813
  2 H s       :     0.601928  s :     0.601928
      pz      :     0.036624  p :     0.099956
      px      :     0.063027
      py      :     0.000305
      dz2     :     0.003055  d :     0.041035
      dxz     :     0.000541
      dyz     :     0.009830
      dx2y2   :     0.005685
      dxy     :     0.021924
  3 O s       :     3.845940  s :     3.845940
      pz      :     1.798495  p :     4.496824
      px      :     1.213698
      py      :     1.484631
      dz2     :     0.008138  d :     0.039055
      dxz     :     0.007011
      dyz     :     0.007607
      dx2y2   :     0.003277
      dxy     :     0.013021
      f0      :     0.000853  f :     0.004903
      f+1     :     0.000962
      f-1     :     0.000706
      f+2     :     0.000511
      f-2     :     0.000738
      f+3     :     0.000686
      f-3     :     0.000445
  4 H s       :     0.647901  s :     0.647901
      pz      :     0.050837  p :     0.105601
      px      :     0.019317
      py      :     0.035447
      dz2     :     0.001759  d :     0.017016
      dxz     :     0.006223
      dyz     :     0.000996
      dx2y2   :     0.004173
      dxy     :     0.003866
  5 H s       :     0.660041  s :     0.660041
      pz      :     0.055111  p :     0.110638
      px      :     0.020597
      py      :     0.034930
      dz2     :     0.001221  d :     0.018502
      dxz     :     0.006175
      dyz     :     0.002165
      dx2y2   :     0.006815
      dxy     :     0.002126


                     *******************************
                     * LOEWDIN POPULATION ANALYSIS *
                     *******************************

----------------------
LOEWDIN ATOMIC CHARGES
----------------------
   0 O :    1.017300
   1 H :   -0.515056
   2 H :   -0.736006
   3 O :    1.093595
   4 H :   -0.407011
   5 H :   -0.452821

-------------------------------
LOEWDIN REDUCED ORBITAL CHARGES
-------------------------------
  0 O s       :     3.011391  s :     3.011391
      pz      :     1.286202  p :     3.854607
      px      :     1.370323
      py      :     1.198081
      dz2     :     0.021828  d :     0.098403
      dxz     :     0.013811
      dyz     :     0.025122
      dx2y2   :     0.028604
      dxy     :     0.009038
      f0      :     0.001838  f :     0.018300
      f+1     :     0.002964
      f-1     :     0.004632
      f+2     :     0.001768
      f-2     :     0.002475
      f+3     :     0.000736
      f-3     :     0.003887
  1 H s       :     0.586082  s :     0.586082
      pz      :     0.238922  p :     0.576448
      px      :     0.191093
      py      :     0.146433
      dz2     :     0.112510  d :     0.352526
      dxz     :     0.085399
      dyz     :     0.077673
      dx2y2   :     0.044279
      dxy     :     0.032666
  2 H s       :     0.551729  s :     0.551729
      pz      :     0.158304  p :     0.660337
      px      :     0.162376
      py      :     0.339657
      dz2     :     0.050877  d :     0.523941
      dxz     :     0.005093
      dyz     :     0.172741
      dx2y2   :     0.150304
      dxy     :     0.144925
  3 O s       :     2.960299  s :     2.960299
      pz      :     1.384224  p :     3.789782
      px      :     1.142668
      py      :     1.262890
      dz2     :     0.023391  d :     0.132375
      dxz     :     0.010821
      dyz     :     0.013189
      dx2y2   :     0.028229
      dxy     :     0.056745
      f0      :     0.001981  f :     0.023949
      f+1     :     0.002619
      f-1     :     0.002180
      f+2     :     0.001575
      f-2     :     0.003162
      f+3     :     0.002925
      f-3     :     0.009508
  4 H s       :     0.558868  s :     0.558868
      pz      :     0.164293  p :     0.511105
      px      :     0.185922
      py      :     0.160890
      dz2     :     0.039312  d :     0.337038
      dxz     :     0.078952
      dyz     :     0.032566
      dx2y2   :     0.097142
      dxy     :     0.089065
  5 H s       :     0.569911  s :     0.569911
      pz      :     0.171403  p :     0.537604
      px      :     0.181107
      py      :     0.185095
      dz2     :     0.036310  d :     0.345307
      dxz     :     0.067504
      dyz     :     0.047097
      dx2y2   :     0.110849
      dxy     :     0.083547


                      *****************************
                      * MAYER POPULATION ANALYSIS *
                      *****************************

  NA   - Mulliken gross atomic population
  ZA   - Total nuclear charge
  QA   - Mulliken gross atomic charge
  VA   - Mayer's total valence
  BVA  - Mayer's bonded valence
  FA   - Mayer's free valence

  ATOM       NA         ZA         QA         VA         BVA        FA
  0 O      8.5048     8.0000    -0.5048     2.1961     1.8240     0.3721
  1 H      0.8058     1.0000     0.1942     1.0880     1.0200     0.0681
  2 H      0.7429     1.0000     0.2571     1.0469     0.9852     0.0616
  3 O      8.3867     8.0000    -0.3867     2.3223     1.9551     0.3672
  4 H      0.7705     1.0000     0.2295     1.0463     0.9802     0.0661
  5 H      0.7892     1.0000     0.2108     1.0594     0.9938     0.0655

  Mayer bond orders larger than 0.100000
B(  0-O ,  1-H ) :   0.9771 B(  0-O ,  2-H ) :   0.8834 B(  3-O ,  4-H ) :   0.9500 
B(  3-O ,  5-H ) :   0.9657 


----------------------------------
MP2 DERIVATIVE INTEGRAL GENERATION
----------------------------------


Input Wavefunction Amplitudes       ... 6h2o.temelso.etal.dset.2h2o-orca.engrad-mp2.augccpvtz-100.to.119_job20.mp2tsaa.tmp
Input Correlated Electron Density   ... 6h2o.temelso.etal.dset.2h2o-orca.engrad-mp2.augccpvtz-100.to.119_job20.pmp2re
Input Energy Weighted Density       ... 6h2o.temelso.etal.dset.2h2o-orca.engrad-mp2.augccpvtz-100.to.119_job20.wmp2.tmp
Input SCF Electron Density          ... 6h2o.temelso.etal.dset.2h2o-orca.engrad-mp2.augccpvtz-100.to.119_job20.scfp

One-Electron Terms    ...
                        ... One-Electron Terms done
Prescreening matrices              ... done

Batch handling in the gradient evaluation:
Memory available                      ... 8000.0 MB
Memory per occupied orbital in Q2     ...    2.1 MB
Memory per occupied orbital in Q3     ...    0.1 MB
Total memory requirement per |i>      ...    2.1 MB
Max. Number of orbitals possible      ...   3746
Number of orbitals treated per batch  ...      8
Number of batches to be done          ...      1
Batch   0: i=    2 ...     9

---------------------------------------
MP2 TOTAL ENERGY:     -152.664201109 Eh
---------------------------------------

The final MP2 gradient
  0:  -0.00206126  -0.00777568  -0.00433196
  1:   0.00201050  -0.00255764   0.00363625
  2:  -0.00011321   0.01605759   0.00173264
  3:   0.01705239  -0.01742116   0.00319058
  4:  -0.01901336   0.01098475  -0.00472325
  5:   0.00212494   0.00071213   0.00049575

-----------------------------------
NORM OF THE MP2 GRADIENT:  0.038501
-----------------------------------

-------------------------   --------------------
FINAL SINGLE POINT ENERGY      -152.664201108825
-------------------------   --------------------


                            ***************************************
                            *     ORCA property calculations      *
                            ***************************************

                                    ---------------------
                                    Active property flags
                                    ---------------------
   (+) Dipole Moment


------------------------------------------------------------------------------
                       ORCA ELECTRIC PROPERTIES CALCULATION
------------------------------------------------------------------------------

Dipole Moment Calculation                       ... on
Quadrupole Moment Calculation                   ... off
Polarizability Calculation                      ... off
GBWName                                         ... 6h2o.temelso.etal.dset.2h2o-orca.engrad-mp2.augccpvtz-100.to.119_job20.gbw
Electron density file                           ... 6h2o.temelso.etal.dset.2h2o-orca.engrad-mp2.augccpvtz-100.to.119_job20.scfp
The origin for moment calculation is the CENTER OF MASS  = ( 0.000002,  0.000013  0.000004)

-------------
DIPOLE MOMENT
-------------
                                X             Y             Z
Electronic contribution:     -0.06396       0.02521      -0.07225
Nuclear contribution   :      0.24313       1.38888       0.49442
                        -----------------------------------------
Total Dipole Moment    :      0.17917       1.41409       0.42217
                        -----------------------------------------
Magnitude (a.u.)       :      1.48660
Magnitude (Debye)      :      3.77864



--------------------
Rotational spectrum 
--------------------
 
Rotational constants in cm-1:     7.805302     0.240886     0.238075 
Rotational constants in MHz : 233997.074160  7221.579520  7137.322361 

 Dipole components along the rotational axes: 
x,y,z [a.u.] :    -1.459068     0.275087     0.073694 
x,y,z [Debye]:    -3.708656     0.699215     0.187315 

 

                         *** MP2 UNRELAXED DENSITY ***

------------------------------------------------------------------------------
                       ORCA ELECTRIC PROPERTIES CALCULATION
------------------------------------------------------------------------------

Dipole Moment Calculation                       ... on
Quadrupole Moment Calculation                   ... off
Polarizability Calculation                      ... off
GBWName                                         ... 6h2o.temelso.etal.dset.2h2o-orca.engrad-mp2.augccpvtz-100.to.119_job20.gbw
Electron density file                           ... 6h2o.temelso.etal.dset.2h2o-orca.engrad-mp2.augccpvtz-100.to.119_job20.pmp2ur
The origin for moment calculation is the CENTER OF MASS  = ( 0.000002,  0.000013  0.000004)

-------------
DIPOLE MOMENT
-------------
                                X             Y             Z
Electronic contribution:     -0.06806       0.00676      -0.08007
Nuclear contribution   :      0.24313       1.38888       0.49442
                        -----------------------------------------
Total Dipole Moment    :      0.17507       1.39564       0.41436
                        -----------------------------------------
Magnitude (a.u.)       :      1.46634
Magnitude (Debye)      :      3.72714



--------------------
Rotational spectrum 
--------------------
 
Rotational constants in cm-1:     7.805302     0.240886     0.238075 
Rotational constants in MHz : 233997.074160  7221.579520  7137.322361 

 Dipole components along the rotational axes: 
x,y,z [a.u.] :    -1.439700     0.268891     0.071500 
x,y,z [Debye]:    -3.659428     0.683467     0.181738 

 

                           *** MP2 RELAXED DENSITY ***

------------------------------------------------------------------------------
                       ORCA ELECTRIC PROPERTIES CALCULATION
------------------------------------------------------------------------------

Dipole Moment Calculation                       ... on
Quadrupole Moment Calculation                   ... off
Polarizability Calculation                      ... off
GBWName                                         ... 6h2o.temelso.etal.dset.2h2o-orca.engrad-mp2.augccpvtz-100.to.119_job20.gbw
Electron density file                           ... 6h2o.temelso.etal.dset.2h2o-orca.engrad-mp2.augccpvtz-100.to.119_job20.pmp2re
The origin for moment calculation is the CENTER OF MASS  = ( 0.000002,  0.000013  0.000004)

-------------
DIPOLE MOMENT
-------------
                                X             Y             Z
Electronic contribution:     -0.07716      -0.03524      -0.09486
Nuclear contribution   :      0.24313       1.38888       0.49442
                        -----------------------------------------
Total Dipole Moment    :      0.16598       1.35363       0.39956
                        -----------------------------------------
Magnitude (a.u.)       :      1.42110
Magnitude (Debye)      :      3.61215



--------------------
Rotational spectrum 
--------------------
 
Rotational constants in cm-1:     7.805302     0.240886     0.238075 
Rotational constants in MHz : 233997.074160  7221.579520  7137.322361 

 Dipole components along the rotational axes: 
x,y,z [a.u.] :    -1.396082     0.256346     0.069032 
x,y,z [Debye]:    -3.548559     0.651579     0.175464 

 

Timings for individual modules:

Sum of individual times         ...       22.829 sec (=   0.380 min)
GTO integral calculation        ...        0.878 sec (=   0.015 min)   3.8 %
SCF iterations                  ...        7.583 sec (=   0.126 min)  33.2 %
MP2 module                      ...       14.368 sec (=   0.239 min)  62.9 %



                             ****ORCA TERMINATED NORMALLY****
TOTAL RUN TIME: 0 days 0 hours 6 minutes 45 seconds 705 msec
