
                                 *****************
                                 * O   R   C   A *
                                 *****************

           --- An Ab Initio, DFT and Semiempirical electronic structure package ---

                  #######################################################
                  #                        -***-                        #
                  #          Department of theory and spectroscopy      #
                  #               Directorship: Frank Neese             #
                  #        Max Planck Institute fuer Kohlenforschung    #
                  #                Kaiser Wilhelm Platz 1               #
                  #                 D-45470 Muelheim/Ruhr               #
                  #                      Germany                        #
                  #                                                     #
                  #                  All rights reserved                #
                  #                        -***-                        #
                  #######################################################


                         Program Version 4.2.0 -  RELEASE  -


 With contributions from (in alphabetic order):
   Daniel Aravena         : Magnetic Suceptibility
   Michael Atanasov       : Ab Initio Ligand Field Theory (pilot matlab implementation)
   Alexander A. Auer      : GIAO ZORA, VPT2
   Ute Becker             : Parallelization
   Giovanni Bistoni       : ED, misc. LED, open-shell LED, HFLED
   Martin Brehm           : Molecular dynamics
   Dmytro Bykov           : SCF Hessian
   Vijay G. Chilkuri      : MRCI spin determinant printing, contributions to CSF-ICE
   Dipayan Datta          : RHF DLPNO-CCSD density
   Achintya Kumar Dutta   : EOM-CC, STEOM-CC
   Dmitry Ganyushin       : Spin-Orbit,Spin-Spin,Magnetic field MRCI
   Miquel Garcia          : C-PCM Hessian, Gaussian charge scheme
   Yang Guo               : DLPNO-NEVPT2, CIM, IAO-localization
   Andreas Hansen         : Spin unrestricted coupled pair/coupled cluster methods
   Benjamin Helmich-Paris : CASSCF linear response (MC-RPA)
   Lee Huntington         : MR-EOM, pCC
   Robert Izsak           : Overlap fitted RIJCOSX, COSX-SCS-MP3, EOM
   Christian Kollmar      : KDIIS, OOCD, Brueckner-CCSD(T), CCSD density
   Simone Kossmann        : Meta GGA functionals, TD-DFT gradient, OOMP2, MP2 Hessian
   Martin Krupicka        : AUTO-CI
   Lucas Lang             : DCDCAS
   Dagmar Lenk            : GEPOL surface, SMD
   Dimitrios Liakos       : Extrapolation schemes; Compound Job, initial MDCI parallelization
   Dimitrios Manganas     : Further ROCIS development; embedding schemes
   Dimitrios Pantazis     : SARC Basis sets
   Taras Petrenko         : DFT Hessian,TD-DFT gradient, ASA, ECA, R-Raman, ABS, FL, XAS/XES, NRVS
   Peter Pinski           : DLPNO-MP2, DLPNO-MP2 Gradient
   Christoph Reimann      : Effective Core Potentials
   Marius Retegan         : Local ZFS, SOC
   Christoph Riplinger    : Optimizer, TS searches, QM/MM, DLPNO-CCSD(T), (RO)-DLPNO pert. Triples
   Tobias Risthaus        : Range-separated hybrids, TD-DFT gradient, RPA, STAB
   Michael Roemelt        : Original ROCIS implementation
   Masaaki Saitow         : Open-shell DLPNO-CCSD energy and density
   Barbara Sandhoefer     : DKH picture change effects
   Avijit Sen             : IP-ROCIS
   Kantharuban Sivalingam : CASSCF convergence, NEVPT2, FIC-MRCI
   Bernardo de Souza      : ESD, SOC TD-DFT
   Georgi Stoychev        : AutoAux, RI-MP2 NMR
   Willem Van den Heuvel  : Paramagnetic NMR
   Boris Wezisla          : Elementary symmetry handling
   Frank Wennmohs         : Technical directorship


 We gratefully acknowledge several colleagues who have allowed us to
 interface, adapt or use parts of their codes:
   Stefan Grimme, W. Hujo, H. Kruse,             : VdW corrections, initial TS optimization,
                  C. Bannwarth                     DFT functionals, gCP, sTDA/sTD-DF
   Ed Valeev, F. Pavosevic, A. Kumar             : LibInt (2-el integral package), F12 methods
   Garnet Chan, S. Sharma, J. Yang, R. Olivares  : DMRG
   Ulf Ekstrom                                   : XCFun DFT Library
   Mihaly Kallay                                 : mrcc  (arbitrary order and MRCC methods)
   Andreas Klamt, Michael Diedenhofen            : otool_cosmo (COSMO solvation model)
   Jiri Pittner, Ondrej Demel                    : Mk-CCSD
   Frank Weinhold                                : gennbo (NPA and NBO analysis)
   Christopher J. Cramer and Donald G. Truhlar   : smd solvation model
   Lars Goerigk                                  : TD-DFT with DH, B97 family of functionals
   V. Asgeirsson, H. Jonsson                     : NEB implementation
   FAccTs GmbH                                   : IRC, NEB, NEB-TS, Multilevel, MM, QM/MM, CI optimization
   S Lehtola, MJT Oliveira, MAL Marques          : LibXC Library


 Your calculation uses the libint2 library for the computation of 2-el integrals
 For citations please refer to: http://libint.valeyev.net

 Your ORCA version has been built with support for libXC version: 4.2.3
 For citations please refer to: https://tddft.org/programs/libxc/

 This ORCA versions uses:
   CBLAS   interface :  Fast vector & matrix operations
   LAPACKE interface :  Fast linear algebra routines
   SCALAPACK package :  Parallel linear algebra routines


----- Orbital basis set information -----
Your calculation utilizes the basis: def2-TZVP
   F. Weigend and R. Ahlrichs, Phys. Chem. Chem. Phys. 7, 3297 (2005).

================================================================================
                                        WARNINGS
                       Please study these warnings very carefully!
================================================================================


WARNING: The frozen-core approximation for MP2-gradient calculations is turned on by default.

INFO   : the flag for use of LIBINT has been found!

----- Orbital basis set information -----
Your calculation utilizes the basis: def2-TZVP
   F. Weigend and R. Ahlrichs, Phys. Chem. Chem. Phys. 7, 3297 (2005).

================================================================================
                                        WARNINGS
                       Please study these warnings very carefully!
================================================================================


WARNING: The frozen-core approximation for MP2-gradient calculations is turned on by default.

INFO   : the flag for use of LIBINT has been found!

----- Orbital basis set information -----
Your calculation utilizes the basis: def2-TZVP
   F. Weigend and R. Ahlrichs, Phys. Chem. Chem. Phys. 7, 3297 (2005).

================================================================================
                                        WARNINGS
                       Please study these warnings very carefully!
================================================================================


WARNING: The frozen-core approximation for MP2-gradient calculations is turned on by default.

INFO   : the flag for use of LIBINT has been found!

----- Orbital basis set information -----
Your calculation utilizes the basis: def2-TZVP
   F. Weigend and R. Ahlrichs, Phys. Chem. Chem. Phys. 7, 3297 (2005).

================================================================================
                                        WARNINGS
                       Please study these warnings very carefully!
================================================================================


WARNING: The frozen-core approximation for MP2-gradient calculations is turned on by default.

INFO   : the flag for use of LIBINT has been found!

----- Orbital basis set information -----
Your calculation utilizes the basis: def2-TZVP
   F. Weigend and R. Ahlrichs, Phys. Chem. Chem. Phys. 7, 3297 (2005).

================================================================================
                                        WARNINGS
                       Please study these warnings very carefully!
================================================================================


WARNING: The frozen-core approximation for MP2-gradient calculations is turned on by default.

INFO   : the flag for use of LIBINT has been found!

----- Orbital basis set information -----
Your calculation utilizes the basis: def2-TZVP
   F. Weigend and R. Ahlrichs, Phys. Chem. Chem. Phys. 7, 3297 (2005).

================================================================================
                                        WARNINGS
                       Please study these warnings very carefully!
================================================================================


WARNING: The frozen-core approximation for MP2-gradient calculations is turned on by default.

INFO   : the flag for use of LIBINT has been found!

----- Orbital basis set information -----
Your calculation utilizes the basis: def2-TZVP
   F. Weigend and R. Ahlrichs, Phys. Chem. Chem. Phys. 7, 3297 (2005).

================================================================================
                                        WARNINGS
                       Please study these warnings very carefully!
================================================================================


WARNING: The frozen-core approximation for MP2-gradient calculations is turned on by default.

INFO   : the flag for use of LIBINT has been found!

----- Orbital basis set information -----
Your calculation utilizes the basis: def2-TZVP
   F. Weigend and R. Ahlrichs, Phys. Chem. Chem. Phys. 7, 3297 (2005).

================================================================================
                                        WARNINGS
                       Please study these warnings very carefully!
================================================================================


WARNING: The frozen-core approximation for MP2-gradient calculations is turned on by default.

INFO   : the flag for use of LIBINT has been found!

----- Orbital basis set information -----
Your calculation utilizes the basis: def2-TZVP
   F. Weigend and R. Ahlrichs, Phys. Chem. Chem. Phys. 7, 3297 (2005).

================================================================================
                                        WARNINGS
                       Please study these warnings very carefully!
================================================================================


WARNING: The frozen-core approximation for MP2-gradient calculations is turned on by default.

INFO   : the flag for use of LIBINT has been found!

----- Orbital basis set information -----
Your calculation utilizes the basis: def2-TZVP
   F. Weigend and R. Ahlrichs, Phys. Chem. Chem. Phys. 7, 3297 (2005).

================================================================================
                                        WARNINGS
                       Please study these warnings very carefully!
================================================================================


WARNING: The frozen-core approximation for MP2-gradient calculations is turned on by default.

INFO   : the flag for use of LIBINT has been found!

----- Orbital basis set information -----
Your calculation utilizes the basis: def2-TZVP
   F. Weigend and R. Ahlrichs, Phys. Chem. Chem. Phys. 7, 3297 (2005).

================================================================================
                                        WARNINGS
                       Please study these warnings very carefully!
================================================================================


WARNING: The frozen-core approximation for MP2-gradient calculations is turned on by default.

INFO   : the flag for use of LIBINT has been found!

----- Orbital basis set information -----
Your calculation utilizes the basis: def2-TZVP
   F. Weigend and R. Ahlrichs, Phys. Chem. Chem. Phys. 7, 3297 (2005).

================================================================================
                                        WARNINGS
                       Please study these warnings very carefully!
================================================================================


WARNING: The frozen-core approximation for MP2-gradient calculations is turned on by default.

INFO   : the flag for use of LIBINT has been found!

----- Orbital basis set information -----
Your calculation utilizes the basis: def2-TZVP
   F. Weigend and R. Ahlrichs, Phys. Chem. Chem. Phys. 7, 3297 (2005).

================================================================================
                                        WARNINGS
                       Please study these warnings very carefully!
================================================================================


WARNING: The frozen-core approximation for MP2-gradient calculations is turned on by default.

INFO   : the flag for use of LIBINT has been found!

----- Orbital basis set information -----
Your calculation utilizes the basis: def2-TZVP
   F. Weigend and R. Ahlrichs, Phys. Chem. Chem. Phys. 7, 3297 (2005).

================================================================================
                                        WARNINGS
                       Please study these warnings very carefully!
================================================================================


WARNING: The frozen-core approximation for MP2-gradient calculations is turned on by default.

INFO   : the flag for use of LIBINT has been found!

----- Orbital basis set information -----
Your calculation utilizes the basis: def2-TZVP
   F. Weigend and R. Ahlrichs, Phys. Chem. Chem. Phys. 7, 3297 (2005).

================================================================================
                                        WARNINGS
                       Please study these warnings very carefully!
================================================================================


WARNING: The frozen-core approximation for MP2-gradient calculations is turned on by default.

INFO   : the flag for use of LIBINT has been found!

----- Orbital basis set information -----
Your calculation utilizes the basis: def2-TZVP
   F. Weigend and R. Ahlrichs, Phys. Chem. Chem. Phys. 7, 3297 (2005).

================================================================================
                                        WARNINGS
                       Please study these warnings very carefully!
================================================================================


WARNING: The frozen-core approximation for MP2-gradient calculations is turned on by default.

INFO   : the flag for use of LIBINT has been found!

----- Orbital basis set information -----
Your calculation utilizes the basis: def2-TZVP
   F. Weigend and R. Ahlrichs, Phys. Chem. Chem. Phys. 7, 3297 (2005).

================================================================================
                                        WARNINGS
                       Please study these warnings very carefully!
================================================================================


WARNING: The frozen-core approximation for MP2-gradient calculations is turned on by default.

INFO   : the flag for use of LIBINT has been found!

----- Orbital basis set information -----
Your calculation utilizes the basis: def2-TZVP
   F. Weigend and R. Ahlrichs, Phys. Chem. Chem. Phys. 7, 3297 (2005).

================================================================================
                                        WARNINGS
                       Please study these warnings very carefully!
================================================================================


WARNING: The frozen-core approximation for MP2-gradient calculations is turned on by default.

INFO   : the flag for use of LIBINT has been found!

----- Orbital basis set information -----
Your calculation utilizes the basis: def2-TZVP
   F. Weigend and R. Ahlrichs, Phys. Chem. Chem. Phys. 7, 3297 (2005).

================================================================================
                                        WARNINGS
                       Please study these warnings very carefully!
================================================================================


WARNING: The frozen-core approximation for MP2-gradient calculations is turned on by default.

INFO   : the flag for use of LIBINT has been found!

----- Orbital basis set information -----
Your calculation utilizes the basis: def2-TZVP
   F. Weigend and R. Ahlrichs, Phys. Chem. Chem. Phys. 7, 3297 (2005).

================================================================================
                                        WARNINGS
                       Please study these warnings very carefully!
================================================================================


WARNING: The frozen-core approximation for MP2-gradient calculations is turned on by default.

INFO   : the flag for use of LIBINT has been found!

----- Orbital basis set information -----
Your calculation utilizes the basis: def2-TZVP
   F. Weigend and R. Ahlrichs, Phys. Chem. Chem. Phys. 7, 3297 (2005).

================================================================================
                                        WARNINGS
                       Please study these warnings very carefully!
================================================================================


WARNING: The frozen-core approximation for MP2-gradient calculations is turned on by default.

INFO   : the flag for use of LIBINT has been found!

----- Orbital basis set information -----
Your calculation utilizes the basis: def2-TZVP
   F. Weigend and R. Ahlrichs, Phys. Chem. Chem. Phys. 7, 3297 (2005).

================================================================================
                                        WARNINGS
                       Please study these warnings very carefully!
================================================================================


WARNING: The frozen-core approximation for MP2-gradient calculations is turned on by default.

INFO   : the flag for use of LIBINT has been found!

----- Orbital basis set information -----
Your calculation utilizes the basis: def2-TZVP
   F. Weigend and R. Ahlrichs, Phys. Chem. Chem. Phys. 7, 3297 (2005).

================================================================================
                                        WARNINGS
                       Please study these warnings very carefully!
================================================================================


WARNING: The frozen-core approximation for MP2-gradient calculations is turned on by default.

INFO   : the flag for use of LIBINT has been found!

----- Orbital basis set information -----
Your calculation utilizes the basis: def2-TZVP
   F. Weigend and R. Ahlrichs, Phys. Chem. Chem. Phys. 7, 3297 (2005).

================================================================================
                                        WARNINGS
                       Please study these warnings very carefully!
================================================================================


WARNING: The frozen-core approximation for MP2-gradient calculations is turned on by default.

INFO   : the flag for use of LIBINT has been found!

----- Orbital basis set information -----
Your calculation utilizes the basis: def2-TZVP
   F. Weigend and R. Ahlrichs, Phys. Chem. Chem. Phys. 7, 3297 (2005).

================================================================================
                                        WARNINGS
                       Please study these warnings very carefully!
================================================================================


WARNING: The frozen-core approximation for MP2-gradient calculations is turned on by default.

INFO   : the flag for use of LIBINT has been found!

----- Orbital basis set information -----
Your calculation utilizes the basis: def2-TZVP
   F. Weigend and R. Ahlrichs, Phys. Chem. Chem. Phys. 7, 3297 (2005).

================================================================================
                                        WARNINGS
                       Please study these warnings very carefully!
================================================================================


WARNING: The frozen-core approximation for MP2-gradient calculations is turned on by default.

INFO   : the flag for use of LIBINT has been found!

----- Orbital basis set information -----
Your calculation utilizes the basis: def2-TZVP
   F. Weigend and R. Ahlrichs, Phys. Chem. Chem. Phys. 7, 3297 (2005).

================================================================================
                                        WARNINGS
                       Please study these warnings very carefully!
================================================================================


WARNING: The frozen-core approximation for MP2-gradient calculations is turned on by default.

INFO   : the flag for use of LIBINT has been found!

----- Orbital basis set information -----
Your calculation utilizes the basis: def2-TZVP
   F. Weigend and R. Ahlrichs, Phys. Chem. Chem. Phys. 7, 3297 (2005).

================================================================================
                                        WARNINGS
                       Please study these warnings very carefully!
================================================================================


WARNING: The frozen-core approximation for MP2-gradient calculations is turned on by default.

INFO   : the flag for use of LIBINT has been found!

----- Orbital basis set information -----
Your calculation utilizes the basis: def2-TZVP
   F. Weigend and R. Ahlrichs, Phys. Chem. Chem. Phys. 7, 3297 (2005).

================================================================================
                                        WARNINGS
                       Please study these warnings very carefully!
================================================================================


WARNING: The frozen-core approximation for MP2-gradient calculations is turned on by default.

INFO   : the flag for use of LIBINT has been found!

----- Orbital basis set information -----
Your calculation utilizes the basis: def2-TZVP
   F. Weigend and R. Ahlrichs, Phys. Chem. Chem. Phys. 7, 3297 (2005).

================================================================================
                                        WARNINGS
                       Please study these warnings very carefully!
================================================================================


WARNING: The frozen-core approximation for MP2-gradient calculations is turned on by default.

INFO   : the flag for use of LIBINT has been found!

----- Orbital basis set information -----
Your calculation utilizes the basis: def2-TZVP
   F. Weigend and R. Ahlrichs, Phys. Chem. Chem. Phys. 7, 3297 (2005).

================================================================================
                                        WARNINGS
                       Please study these warnings very carefully!
================================================================================


WARNING: The frozen-core approximation for MP2-gradient calculations is turned on by default.

INFO   : the flag for use of LIBINT has been found!

----- Orbital basis set information -----
Your calculation utilizes the basis: def2-TZVP
   F. Weigend and R. Ahlrichs, Phys. Chem. Chem. Phys. 7, 3297 (2005).

================================================================================
                                        WARNINGS
                       Please study these warnings very carefully!
================================================================================


WARNING: The frozen-core approximation for MP2-gradient calculations is turned on by default.

INFO   : the flag for use of LIBINT has been found!

----- Orbital basis set information -----
Your calculation utilizes the basis: def2-TZVP
   F. Weigend and R. Ahlrichs, Phys. Chem. Chem. Phys. 7, 3297 (2005).

================================================================================
                                        WARNINGS
                       Please study these warnings very carefully!
================================================================================


WARNING: The frozen-core approximation for MP2-gradient calculations is turned on by default.

INFO   : the flag for use of LIBINT has been found!

----- Orbital basis set information -----
Your calculation utilizes the basis: def2-TZVP
   F. Weigend and R. Ahlrichs, Phys. Chem. Chem. Phys. 7, 3297 (2005).

================================================================================
                                        WARNINGS
                       Please study these warnings very carefully!
================================================================================


WARNING: The frozen-core approximation for MP2-gradient calculations is turned on by default.

INFO   : the flag for use of LIBINT has been found!

----- Orbital basis set information -----
Your calculation utilizes the basis: def2-TZVP
   F. Weigend and R. Ahlrichs, Phys. Chem. Chem. Phys. 7, 3297 (2005).

================================================================================
                                        WARNINGS
                       Please study these warnings very carefully!
================================================================================


WARNING: The frozen-core approximation for MP2-gradient calculations is turned on by default.

INFO   : the flag for use of LIBINT has been found!

----- Orbital basis set information -----
Your calculation utilizes the basis: def2-TZVP
   F. Weigend and R. Ahlrichs, Phys. Chem. Chem. Phys. 7, 3297 (2005).

================================================================================
                                        WARNINGS
                       Please study these warnings very carefully!
================================================================================


WARNING: The frozen-core approximation for MP2-gradient calculations is turned on by default.

INFO   : the flag for use of LIBINT has been found!

----- Orbital basis set information -----
Your calculation utilizes the basis: def2-TZVP
   F. Weigend and R. Ahlrichs, Phys. Chem. Chem. Phys. 7, 3297 (2005).

================================================================================
                                        WARNINGS
                       Please study these warnings very carefully!
================================================================================


WARNING: The frozen-core approximation for MP2-gradient calculations is turned on by default.

INFO   : the flag for use of LIBINT has been found!

----- Orbital basis set information -----
Your calculation utilizes the basis: def2-TZVP
   F. Weigend and R. Ahlrichs, Phys. Chem. Chem. Phys. 7, 3297 (2005).

================================================================================
                                        WARNINGS
                       Please study these warnings very carefully!
================================================================================


WARNING: The frozen-core approximation for MP2-gradient calculations is turned on by default.

INFO   : the flag for use of LIBINT has been found!

----- Orbital basis set information -----
Your calculation utilizes the basis: def2-TZVP
   F. Weigend and R. Ahlrichs, Phys. Chem. Chem. Phys. 7, 3297 (2005).

================================================================================
                                        WARNINGS
                       Please study these warnings very carefully!
================================================================================


WARNING: The frozen-core approximation for MP2-gradient calculations is turned on by default.

INFO   : the flag for use of LIBINT has been found!

----- Orbital basis set information -----
Your calculation utilizes the basis: def2-TZVP
   F. Weigend and R. Ahlrichs, Phys. Chem. Chem. Phys. 7, 3297 (2005).

================================================================================
                                        WARNINGS
                       Please study these warnings very carefully!
================================================================================


WARNING: The frozen-core approximation for MP2-gradient calculations is turned on by default.

INFO   : the flag for use of LIBINT has been found!

----- Orbital basis set information -----
Your calculation utilizes the basis: def2-TZVP
   F. Weigend and R. Ahlrichs, Phys. Chem. Chem. Phys. 7, 3297 (2005).

================================================================================
                                        WARNINGS
                       Please study these warnings very carefully!
================================================================================


WARNING: The frozen-core approximation for MP2-gradient calculations is turned on by default.

INFO   : the flag for use of LIBINT has been found!

----- Orbital basis set information -----
Your calculation utilizes the basis: def2-TZVP
   F. Weigend and R. Ahlrichs, Phys. Chem. Chem. Phys. 7, 3297 (2005).

================================================================================
                                        WARNINGS
                       Please study these warnings very carefully!
================================================================================


WARNING: The frozen-core approximation for MP2-gradient calculations is turned on by default.

INFO   : the flag for use of LIBINT has been found!

----- Orbital basis set information -----
Your calculation utilizes the basis: def2-TZVP
   F. Weigend and R. Ahlrichs, Phys. Chem. Chem. Phys. 7, 3297 (2005).

================================================================================
                                        WARNINGS
                       Please study these warnings very carefully!
================================================================================


WARNING: The frozen-core approximation for MP2-gradient calculations is turned on by default.

INFO   : the flag for use of LIBINT has been found!

----- Orbital basis set information -----
Your calculation utilizes the basis: def2-TZVP
   F. Weigend and R. Ahlrichs, Phys. Chem. Chem. Phys. 7, 3297 (2005).

================================================================================
                                        WARNINGS
                       Please study these warnings very carefully!
================================================================================


WARNING: The frozen-core approximation for MP2-gradient calculations is turned on by default.

INFO   : the flag for use of LIBINT has been found!

----- Orbital basis set information -----
Your calculation utilizes the basis: def2-TZVP
   F. Weigend and R. Ahlrichs, Phys. Chem. Chem. Phys. 7, 3297 (2005).

================================================================================
                                        WARNINGS
                       Please study these warnings very carefully!
================================================================================


WARNING: The frozen-core approximation for MP2-gradient calculations is turned on by default.

INFO   : the flag for use of LIBINT has been found!

----- Orbital basis set information -----
Your calculation utilizes the basis: def2-TZVP
   F. Weigend and R. Ahlrichs, Phys. Chem. Chem. Phys. 7, 3297 (2005).

================================================================================
                                        WARNINGS
                       Please study these warnings very carefully!
================================================================================


WARNING: The frozen-core approximation for MP2-gradient calculations is turned on by default.

INFO   : the flag for use of LIBINT has been found!

----- Orbital basis set information -----
Your calculation utilizes the basis: def2-TZVP
   F. Weigend and R. Ahlrichs, Phys. Chem. Chem. Phys. 7, 3297 (2005).

================================================================================
                                        WARNINGS
                       Please study these warnings very carefully!
================================================================================


WARNING: The frozen-core approximation for MP2-gradient calculations is turned on by default.

INFO   : the flag for use of LIBINT has been found!

----- Orbital basis set information -----
Your calculation utilizes the basis: def2-TZVP
   F. Weigend and R. Ahlrichs, Phys. Chem. Chem. Phys. 7, 3297 (2005).

================================================================================
                                        WARNINGS
                       Please study these warnings very carefully!
================================================================================


WARNING: The frozen-core approximation for MP2-gradient calculations is turned on by default.

INFO   : the flag for use of LIBINT has been found!

================================================================================
                                       INPUT FILE
================================================================================
NAME = 48mecn.sphere.gfn2.md.500k.prod1.3mecn.cm.17.dset.2mecn-orca.engrad-mp2.def2tzvp-14800.to.14847.inp
|  1> # 48mecn.sphere.gfn2.md.500k.prod1.3mecn.cm.17.dset.2mecn-orca.engrad-mp2.def2tzvp-14800.to.14847
|  2> ! MP2 def2-TZVP EnGrad TightSCF FrozenCore
|  3> 
|  4> %pal
|  5>     nprocs 12
|  6> end
|  7> 
|  8> %maxcore 8000
|  9> 
| 10> %scf
| 11>     ConvForced true
| 12> end
| 13> 
| 14> *xyz 0 1
| 15> C  -4.384802701  -0.268604924  -3.887649991
| 16> H  -4.850571815  -1.222814588  -3.678386012
| 17> H  -3.263915577  -0.105447209  -3.828830261
| 18> H  -4.835221237   0.037176589  -4.852062046
| 19> C  -5.019538668   0.478414125  -2.834481856
| 20> N  -5.621262778   0.946833727  -1.958769287
| 21> C   3.734198376  -0.659050805   2.883620904
| 22> H   3.032841442   0.184478374   2.917727060
| 23> H   3.589498526  -1.033925044   3.909515282
| 24> H   3.527934800  -1.195339190   1.977580246
| 25> C   5.141139650  -0.254675536   3.026283469
| 26> N   6.276283363  -0.103236352   2.910964081
| 27> *
| 28> 
| 29> 
| 30> $new_job
| 31> 
| 32> # 48mecn.sphere.gfn2.md.500k.prod1.3mecn.cm.17.dset.2mecn-orca.engrad-mp2.def2tzvp-14800.to.14847
| 33> ! MP2 def2-TZVP EnGrad TightSCF FrozenCore
| 34> 
| 35> %pal
| 36>     nprocs 12
| 37> end
| 38> 
| 39> %maxcore 8000
| 40> 
| 41> %scf
| 42>     ConvForced true
| 43> end
| 44> 
| 45> *xyz 0 1
| 46> C  -2.047362988   2.144657030  -0.764302128
| 47> H  -2.150912393   3.313218789  -0.875097974
| 48> H  -0.964538926   1.703583775  -0.603348593
| 49> H  -2.799650829   1.769858345   0.046885375
| 50> C  -2.505114222   1.427211040  -1.923571048
| 51> N  -3.047855866   0.925677918  -2.794085406
| 52> C   1.263917034  -1.833782571   1.720054141
| 53> H   0.562560100  -0.990253392   1.754160296
| 54> H   1.119217183  -2.208656810   2.745948519
| 55> H   1.057653457  -2.370070956   0.814013482
| 56> C   2.670858308  -1.429407302   1.862716706
| 57> N   3.806002021  -1.277968119   1.747397317
| 58> *
| 59> 
| 60> 
| 61> $new_job
| 62> 
| 63> # 48mecn.sphere.gfn2.md.500k.prod1.3mecn.cm.17.dset.2mecn-orca.engrad-mp2.def2tzvp-14800.to.14847
| 64> ! MP2 def2-TZVP EnGrad TightSCF FrozenCore
| 65> 
| 66> %pal
| 67>     nprocs 12
| 68> end
| 69> 
| 70> %maxcore 8000
| 71> 
| 72> %scf
| 73>     ConvForced true
| 74> end
| 75> 
| 76> *xyz 0 1
| 77> C   0.439020856  -0.193829224  -4.491558446
| 78> H   1.283146324  -0.377807422  -5.338394936
| 79> H  -0.497372131  -0.001438585  -5.030180875
| 80> H   0.377670843  -1.218148260  -3.964631274
| 81> C   0.859617514   0.951270937  -3.769423655
| 82> N   1.405465091   1.789396179  -3.227914192
| 83> C   0.009519892  -0.491008551   4.715989509
| 84> H   0.159803548  -1.300587400   5.529153538
| 85> H  -0.121146865   0.438179435   5.313205645
| 86> H   0.794154627  -0.390736776   3.973721108
| 87> C  -1.034506036  -0.950224047   3.817145649
| 88> N  -1.783745693  -0.997978078   2.959815305
| 89> *
| 90> 
| 91> 
| 92> $new_job
| 93> 
| 94> # 48mecn.sphere.gfn2.md.500k.prod1.3mecn.cm.17.dset.2mecn-orca.engrad-mp2.def2tzvp-14800.to.14847
| 95> ! MP2 def2-TZVP EnGrad TightSCF FrozenCore
| 96> 
| 97> %pal
| 98>     nprocs 12
| 99> end
|100> 
|101> %maxcore 8000
|102> 
|103> %scf
|104>     ConvForced true
|105> end
|106> 
|107> *xyz 0 1
|108> C  -0.554387977   1.796599275   2.250686998
|109> H   0.289737490   1.612621077   1.403850508
|110> H  -1.490780965   1.988989914   1.712064569
|111> H  -0.615737991   0.772280239   2.777614170
|112> C  -0.133791320   2.941699436   2.972821789
|113> N   0.412056257   3.779824678   3.514331253
|114> C  -0.542504649  -3.923627791  -2.747907937
|115> H  -0.302613485  -4.488815192  -1.846060534
|116> H  -0.196054437  -4.636829881  -3.611602006
|117> H  -1.683475797  -3.735177393  -2.879118035
|118> C   0.185518195  -2.621775700  -2.850657557
|119> N   0.771849946  -1.619668640  -3.016939166
|120> *
|121> 
|122> 
|123> $new_job
|124> 
|125> # 48mecn.sphere.gfn2.md.500k.prod1.3mecn.cm.17.dset.2mecn-orca.engrad-mp2.def2tzvp-14800.to.14847
|126> ! MP2 def2-TZVP EnGrad TightSCF FrozenCore
|127> 
|128> %pal
|129>     nprocs 12
|130> end
|131> 
|132> %maxcore 8000
|133> 
|134> %scf
|135>     ConvForced true
|136> end
|137> 
|138> *xyz 0 1
|139> C  -0.095825676   2.292364662   7.588039730
|140> H   0.054457980   1.482785813   8.401203759
|141> H  -0.226492432   3.221552647   8.185255866
|142> H   0.688809060   2.392636437   6.845771329
|143> C  -1.139851603   1.833149166   6.689195870
|144> N  -1.889091261   1.785395135   5.831865526
|145> C   0.345558617  -3.130683077  -6.618103160
|146> H   0.585449782  -3.695870479  -5.716255757
|147> H   0.692008829  -3.843885168  -7.481797229
|148> H  -0.795412531  -2.942232680  -6.749313258
|149> C   1.073581462  -1.828830986  -6.720852780
|150> N   1.659913213  -0.826723927  -6.887134389
|151> *
|152> 
|153> 
|154> $new_job
|155> 
|156> # 48mecn.sphere.gfn2.md.500k.prod1.3mecn.cm.17.dset.2mecn-orca.engrad-mp2.def2tzvp-14800.to.14847
|157> ! MP2 def2-TZVP EnGrad TightSCF FrozenCore
|158> 
|159> %pal
|160>     nprocs 12
|161> end
|162> 
|163> %maxcore 8000
|164> 
|165> %scf
|166>     ConvForced true
|167> end
|168> 
|169> *xyz 0 1
|170> C   2.439512989  -0.724387859  -4.630021351
|171> H   2.111340021  -1.680648427  -5.011874919
|172> H   2.624911743  -0.873167286  -3.510103637
|173> H   3.426988826  -0.579972922  -5.112159991
|174> C   1.481770815   0.311711031  -4.935108719
|175> N   0.910048714   1.252432460  -5.256756540
|176> C  -0.977430915   0.470469467   5.769799364
|177> H  -1.876747443   0.811160632   6.386366702
|178> H  -0.518981489   1.257627249   5.298770547
|179> H  -0.210064347  -0.075113633   6.191988435
|180> C  -1.749831087  -0.321084202   4.818925643
|181> N  -2.333733545  -0.944639594   4.073784297
|182> *
|183> 
|184> 
|185> $new_job
|186> 
|187> # 48mecn.sphere.gfn2.md.500k.prod1.3mecn.cm.17.dset.2mecn-orca.engrad-mp2.def2tzvp-14800.to.14847
|188> ! MP2 def2-TZVP EnGrad TightSCF FrozenCore
|189> 
|190> %pal
|191>     nprocs 12
|192> end
|193> 
|194> %maxcore 8000
|195> 
|196> %scf
|197>     ConvForced true
|198> end
|199> 
|200> *xyz 0 1
|201> C  -0.368678300  -4.005227213  -3.139233140
|202> H  -0.696851267  -4.961487781  -3.521086708
|203> H  -0.183279546  -4.154006641  -2.019315426
|204> H   0.618797537  -3.860812277  -3.621371780
|205> C  -1.326420473  -2.969128323  -3.444320508
|206> N  -1.898142575  -2.028406895  -3.765968329
|207> C   0.418494694   4.047181091   3.665076327
|208> H   0.105216283   3.972853403   4.779571625
|209> H  -0.400664849   3.854701753   3.097574324
|210> H   0.849173214   5.033236650   3.446828570
|211> C   1.285923040   2.949591057   3.421317881
|212> N   1.869113000   2.017498047   3.179233077
|213> *
|214> 
|215> 
|216> $new_job
|217> 
|218> # 48mecn.sphere.gfn2.md.500k.prod1.3mecn.cm.17.dset.2mecn-orca.engrad-mp2.def2tzvp-14800.to.14847
|219> ! MP2 def2-TZVP EnGrad TightSCF FrozenCore
|220> 
|221> %pal
|222>     nprocs 12
|223> end
|224> 
|225> %maxcore 8000
|226> 
|227> %scf
|228>     ConvForced true
|229> end
|230> 
|231> *xyz 0 1
|232> C  -2.127443557  -2.580702125   2.333742347
|233> H  -3.026760085  -2.240010960   2.950309685
|234> H  -1.668994131  -1.793544344   1.862713530
|235> H  -1.360076989  -3.126285225   2.755931418
|236> C  -2.899843729  -3.372255794   1.382868626
|237> N  -3.483746187  -3.995811186   0.637727280
|238> C   2.076673340   4.276848853  -1.261768901
|239> H   1.763394930   4.202521165  -0.147273603
|240> H   1.257513797   4.084369515  -1.829270904
|241> H   2.507351860   5.262904412  -1.480016658
|242> C   2.944101686   3.179258819  -1.505527347
|243> N   3.527291646   2.247165809  -1.747612151
|244> *
|245> 
|246> 
|247> $new_job
|248> 
|249> # 48mecn.sphere.gfn2.md.500k.prod1.3mecn.cm.17.dset.2mecn-orca.engrad-mp2.def2tzvp-14800.to.14847
|250> ! MP2 def2-TZVP EnGrad TightSCF FrozenCore
|251> 
|252> %pal
|253>     nprocs 12
|254> end
|255> 
|256> %maxcore 8000
|257> 
|258> %scf
|259>     ConvForced true
|260> end
|261> 
|262> *xyz 0 1
|263> C  -1.569331965  -1.086814155  -3.573244407
|264> H  -2.123078005  -1.737340555  -4.252737025
|265> H  -0.733117276  -1.630109510  -3.090621867
|266> H  -0.972970420  -0.676877770  -4.379828273
|267> C  -2.225279144  -0.171616433  -2.748336718
|268> N  -2.674451261   0.697662296  -2.163818015
|269> C   3.027543575   0.535375260   3.726452588
|270> H   2.741186071   1.157777992   4.536729577
|271> H   3.752552336   1.143977924   3.191321337
|272> H   3.483691183  -0.333462280   4.115529172
|273> C   1.997242669   0.198330132   2.748789285
|274> N   1.177254789  -0.098362544   2.023401012
|275> *
|276> 
|277> 
|278> $new_job
|279> 
|280> # 48mecn.sphere.gfn2.md.500k.prod1.3mecn.cm.17.dset.2mecn-orca.engrad-mp2.def2tzvp-14800.to.14847
|281> ! MP2 def2-TZVP EnGrad TightSCF FrozenCore
|282> 
|283> %pal
|284>     nprocs 12
|285> end
|286> 
|287> %maxcore 8000
|288> 
|289> %scf
|290>     ConvForced true
|291> end
|292> 
|293> *xyz 0 1
|294> C  -2.202944381   0.845888962  -4.049731971
|295> H  -2.756690420   0.195362562  -4.729224589
|296> H  -1.366729692   0.302593607  -3.567109432
|297> H  -1.606582836   1.255825348  -4.856315837
|298> C  -2.858891560   1.761086685  -3.224824282
|299> N  -3.308063676   2.630365413  -2.640305579
|300> C   1.521899458  -1.279930908   3.107338321
|301> H   1.597677513  -0.361794084   2.454489207
|302> H   1.135279885  -1.192694364   4.121050010
|303> H   1.022034293  -2.252544540   2.717050646
|304> C   2.908701928  -1.744414815   3.398447650
|305> N   3.991419097  -2.124755016   3.577228582
|306> *
|307> 
|308> 
|309> $new_job
|310> 
|311> # 48mecn.sphere.gfn2.md.500k.prod1.3mecn.cm.17.dset.2mecn-orca.engrad-mp2.def2tzvp-14800.to.14847
|312> ! MP2 def2-TZVP EnGrad TightSCF FrozenCore
|313> 
|314> %pal
|315>     nprocs 12
|316> end
|317> 
|318> %maxcore 8000
|319> 
|320> %scf
|321>     ConvForced true
|322> end
|323> 
|324> *xyz 0 1
|325> C   0.277189100   2.238657665   0.374336097
|326> H  -0.009168404   2.861060397   1.184613085
|327> H   1.002197860   2.847260328  -0.160795154
|328> H   0.733336708   1.369820125   0.763412681
|329> C  -0.753111807   1.901612537  -0.603327207
|330> N  -1.573099686   1.604919861  -1.328715480
|331> C  -0.594842601  -1.509351621   0.231709393
|332> H  -0.519064546  -0.591214796  -0.421139720
|333> H  -0.981462175  -1.422115076   1.245421082
|334> H  -1.094707767  -2.481965253  -0.158578282
|335> C   0.791959869  -1.973835528   0.522818722
|336> N   1.874677037  -2.354175729   0.701599654
|337> *
|338> 
|339> 
|340> $new_job
|341> 
|342> # 48mecn.sphere.gfn2.md.500k.prod1.3mecn.cm.17.dset.2mecn-orca.engrad-mp2.def2tzvp-14800.to.14847
|343> ! MP2 def2-TZVP EnGrad TightSCF FrozenCore
|344> 
|345> %pal
|346>     nprocs 12
|347> end
|348> 
|349> %maxcore 8000
|350> 
|351> %scf
|352>     ConvForced true
|353> end
|354> 
|355> *xyz 0 1
|356> C   1.500184394  -3.680231054  -0.269308550
|357> H   0.966662142  -2.801200727  -0.725697043
|358> H   1.721067405  -3.618432271   0.836800112
|359> H   0.720611951  -4.416554018  -0.255849522
|360> C   2.756605863  -3.840532263  -0.955702757
|361> N   3.833995964  -3.751215587  -1.331427663
|362> C  -2.042492683   2.997045893  -0.077002066
|363> H  -2.004986463   3.531466621  -1.116492747
|364> H  -2.672390801   2.006603532  -0.211772511
|365> H  -1.071054725   2.586523365   0.112284522
|366> C  -2.709382749   3.873841354   0.949801181
|367> N  -3.241110288   4.503556051   1.731338476
|368> *
|369> 
|370> 
|371> $new_job
|372> 
|373> # 48mecn.sphere.gfn2.md.500k.prod1.3mecn.cm.17.dset.2mecn-orca.engrad-mp2.def2tzvp-14800.to.14847
|374> ! MP2 def2-TZVP EnGrad TightSCF FrozenCore
|375> 
|376> %pal
|377>     nprocs 12
|378> end
|379> 
|380> %maxcore 8000
|381> 
|382> %scf
|383>     ConvForced true
|384> end
|385> 
|386> *xyz 0 1
|387> C   3.310893648  -0.165102606   0.329646977
|388> H   2.777371396   0.713927721  -0.126741516
|389> H   3.531776658  -0.103303823   1.435755639
|390> H   2.531321204  -0.901425570   0.343106004
|391> C   4.567315117  -0.325403815  -0.356747230
|392> N   5.644705217  -0.236087139  -0.732472136
|393> C  -4.445771917   0.903587289   1.277497389
|394> H  -3.445170230   1.328351974   1.217363452
|395> H  -4.661975933   0.288181757   2.173119027
|396> H  -5.111232532   1.812442482   1.146681407
|397> C  -4.587919978   0.164021740   0.058775039
|398> N  -4.338939048  -0.484549691  -0.835410768
|399> *
|400> 
|401> 
|402> $new_job
|403> 
|404> # 48mecn.sphere.gfn2.md.500k.prod1.3mecn.cm.17.dset.2mecn-orca.engrad-mp2.def2tzvp-14800.to.14847
|405> ! MP2 def2-TZVP EnGrad TightSCF FrozenCore
|406> 
|407> %pal
|408>     nprocs 12
|409> end
|410> 
|411> %maxcore 8000
|412> 
|413> %scf
|414>     ConvForced true
|415> end
|416> 
|417> *xyz 0 1
|418> C   2.405494255   2.765844870  -0.294295485
|419> H   2.443000475   3.300265599  -1.333786166
|420> H   1.775596137   1.775402509  -0.429065930
|421> H   3.376932213   2.355322342  -0.105008897
|422> C   1.738604189   3.642640331   0.732507762
|423> N   1.206876650   4.272355028   1.514045057
|424> C  -1.808494232  -2.842742181   0.461248443
|425> H  -0.807892545  -2.417977496   0.401114506
|426> H  -2.024698248  -3.458147714   1.356870081
|427> H  -2.473954848  -1.933886989   0.330432462
|428> C  -1.950642294  -3.582307730  -0.757473906
|429> N  -1.701661364  -4.230879162  -1.651659714
|430> *
|431> 
|432> 
|433> $new_job
|434> 
|435> # 48mecn.sphere.gfn2.md.500k.prod1.3mecn.cm.17.dset.2mecn-orca.engrad-mp2.def2tzvp-14800.to.14847
|436> ! MP2 def2-TZVP EnGrad TightSCF FrozenCore
|437> 
|438> %pal
|439>     nprocs 12
|440> end
|441> 
|442> %maxcore 8000
|443> 
|444> %scf
|445>     ConvForced true
|446> end
|447> 
|448> *xyz 0 1
|449> C  -3.011841671   1.404237565  -3.628475909
|450> H  -2.972342028   2.468229847  -3.754794956
|451> H  -3.799366215   1.337040484  -2.882377884
|452> H  -3.121150653   0.826070891  -4.485841661
|453> C  -1.923474118   0.939879194  -2.828561614
|454> N  -1.150124617   0.643643403  -2.057663977
|455> C   2.691265942  -1.938215611   2.167527582
|456> H   3.462988124  -1.771771340   1.442666867
|457> H   1.895939944  -2.357202676   1.513756131
|458> H   2.945049253  -2.678906614   2.889528372
|459> C   1.999810914  -0.854970254   2.919701163
|460> N   1.473872374  -0.101981909   3.611899482
|461> *
|462> 
|463> 
|464> $new_job
|465> 
|466> # 48mecn.sphere.gfn2.md.500k.prod1.3mecn.cm.17.dset.2mecn-orca.engrad-mp2.def2tzvp-14800.to.14847
|467> ! MP2 def2-TZVP EnGrad TightSCF FrozenCore
|468> 
|469> %pal
|470>     nprocs 12
|471> end
|472> 
|473> %maxcore 8000
|474> 
|475> %scf
|476>     ConvForced true
|477> end
|478> 
|479> *xyz 0 1
|480> C  -2.580625162  -0.936408056   1.661362453
|481> H  -2.541125519   0.127584226   1.535043406
|482> H  -3.368149707  -1.003605137   2.407460477
|483> H  -2.689934144  -1.514574730   0.803996701
|484> C  -1.492257609  -1.400766427   2.461276747
|485> N  -0.718908108  -1.697002218   3.232174385
|486> C   2.766572756   1.055319509  -2.965737749
|487> H   3.441796242   0.900227432  -2.214227858
|488> H   2.989712039   1.837671034  -3.642692052
|489> H   2.806273611   0.181021427  -3.544461412
|490> C   1.479100262   1.320224104  -2.380508845
|491> N   0.524802924   1.626087344  -1.848066489
|492> *
|493> 
|494> 
|495> $new_job
|496> 
|497> # 48mecn.sphere.gfn2.md.500k.prod1.3mecn.cm.17.dset.2mecn-orca.engrad-mp2.def2tzvp-14800.to.14847
|498> ! MP2 def2-TZVP EnGrad TightSCF FrozenCore
|499> 
|500> %pal
|501>     nprocs 12
|502> end
|503> 
|504> %maxcore 8000
|505> 
|506> %scf
|507>     ConvForced true
|508> end
|509> 
|510> *xyz 0 1
|511> C   1.043249936  -3.259724372   4.593063438
|512> H   1.814972119  -3.093280101   3.868202722
|513> H   0.247923938  -3.678711437   3.939291986
|514> H   1.297033248  -4.000415375   5.315064227
|515> C   0.351794909  -2.176479015   5.345237018
|516> N  -0.174143631  -1.423490670   6.037435338
|517> C   0.687340242   2.074456369  -5.830040255
|518> H   1.362563728   1.919364292  -5.078530364
|519> H   0.910479525   2.856807894  -6.506994559
|520> H   0.727041097   1.200158287  -6.408763919
|521> C  -0.600132251   2.339360964  -5.244811351
|522> N  -1.554429590   2.645224204  -4.712368996
|523> *
|524> 
|525> 
|526> $new_job
|527> 
|528> # 48mecn.sphere.gfn2.md.500k.prod1.3mecn.cm.17.dset.2mecn-orca.engrad-mp2.def2tzvp-14800.to.14847
|529> ! MP2 def2-TZVP EnGrad TightSCF FrozenCore
|530> 
|531> %pal
|532>     nprocs 12
|533> end
|534> 
|535> %maxcore 8000
|536> 
|537> %scf
|538>     ConvForced true
|539> end
|540> 
|541> *xyz 0 1
|542> C   1.815117200   0.797810168  -1.662789749
|543> H   1.650391126  -0.296133184  -1.727362944
|544> H   3.001474258   0.799651485  -1.565463368
|545> H   1.643669413   1.386776509  -2.709347159
|546> C   1.203304342   1.491829333  -0.572423271
|547> N   0.683284425   2.008422702   0.319821448
|548> C  -2.110351532  -0.501358524   0.563009568
|549> H  -3.081511205  -0.828145961  -0.006230775
|550> H  -1.694132403   0.290160634  -0.076349193
|551> H  -2.400477187  -0.215361092   1.583682366
|552> C  -1.175614495  -1.527482462   0.623955829
|553> N  -0.390519456  -2.313850132   0.902859429
|554> *
|555> 
|556> 
|557> $new_job
|558> 
|559> # 48mecn.sphere.gfn2.md.500k.prod1.3mecn.cm.17.dset.2mecn-orca.engrad-mp2.def2tzvp-14800.to.14847
|560> ! MP2 def2-TZVP EnGrad TightSCF FrozenCore
|561> 
|562> %pal
|563>     nprocs 12
|564> end
|565> 
|566> %maxcore 8000
|567> 
|568> %scf
|569>     ConvForced true
|570> end
|571> 
|572> *xyz 0 1
|573> C  -2.957908466  -2.999823942  -1.468243682
|574> H  -3.122634540  -4.093767294  -1.532816876
|575> H  -1.771551408  -2.997982625  -1.370917301
|576> H  -3.129356253  -2.410857601  -2.514801092
|577> C  -3.569721325  -2.305804777  -0.377877203
|578> N  -4.089741242  -1.789211409   0.514367516
|579> C   3.168651338   1.581914351  -0.408848603
|580> H   3.500168602   1.889321132  -1.338999395
|581> H   2.014844702   1.448971834  -0.485312121
|582> H   3.702770155   0.638404728  -0.051436016
|583> C   3.461774278   2.526013938   0.618586586
|584> N   3.915668273   3.213781127   1.413588008
|585> *
|586> 
|587> 
|588> $new_job
|589> 
|590> # 48mecn.sphere.gfn2.md.500k.prod1.3mecn.cm.17.dset.2mecn-orca.engrad-mp2.def2tzvp-14800.to.14847
|591> ! MP2 def2-TZVP EnGrad TightSCF FrozenCore
|592> 
|593> %pal
|594>     nprocs 12
|595> end
|596> 
|597> %maxcore 8000
|598> 
|599> %scf
|600>     ConvForced true
|601> end
|602> 
|603> *xyz 0 1
|604> C  -5.612576155  -2.897414252   0.065368634
|605> H  -6.583735829  -3.224201689  -0.503871709
|606> H  -5.196357027  -2.105895094  -0.573990127
|607> H  -5.902701811  -2.611416819   1.086041432
|608> C  -4.677839119  -3.923538189   0.126314894
|609> N  -3.892744080  -4.709905859   0.405218495
|610> C   4.439452380   2.983492734  -1.101035605
|611> H   4.770969645   3.290899514  -2.031186397
|612> H   3.285645744   2.850550217  -1.177499123
|613> H   4.973571197   2.039983110  -0.743623018
|614> C   4.732575320   3.927592320  -0.073600416
|615> N   5.186469315   4.615359509   0.721401006
|616> *
|617> 
|618> 
|619> $new_job
|620> 
|621> # 48mecn.sphere.gfn2.md.500k.prod1.3mecn.cm.17.dset.2mecn-orca.engrad-mp2.def2tzvp-14800.to.14847
|622> ! MP2 def2-TZVP EnGrad TightSCF FrozenCore
|623> 
|624> %pal
|625>     nprocs 12
|626> end
|627> 
|628> %maxcore 8000
|629> 
|630> %scf
|631>     ConvForced true
|632> end
|633> 
|634> *xyz 0 1
|635> C  -1.530030139   1.537072517  -0.714225409
|636> H  -2.087857654   2.237600480  -1.480992761
|637> H  -2.115807925   0.981856630  -0.020210839
|638> H  -0.722603103   0.808957799  -1.050363389
|639> C  -0.943967774   2.660136284   0.044892780
|640> N  -0.509101010   3.478119717   0.713686941
|641> C   1.816144990  -3.521351892   0.287934271
|642> H   1.357037103  -4.297635988  -0.287710367
|643> H   1.569763552  -3.700834062   1.397809974
|644> H   2.890724930  -3.237339012   0.090241384
|645> C   0.965751464  -2.352562464  -0.063446537
|646> N   0.180967240  -1.521842268  -0.235033289
|647> *
|648> 
|649> 
|650> $new_job
|651> 
|652> # 48mecn.sphere.gfn2.md.500k.prod1.3mecn.cm.17.dset.2mecn-orca.engrad-mp2.def2tzvp-14800.to.14847
|653> ! MP2 def2-TZVP EnGrad TightSCF FrozenCore
|654> 
|655> %pal
|656>     nprocs 12
|657> end
|658> 
|659> %maxcore 8000
|660> 
|661> %scf
|662>     ConvForced true
|663> end
|664> 
|665> *xyz 0 1
|666> C  -0.762957013  -3.331924534   0.037407738
|667> H  -1.320784529  -2.631396571  -0.729359614
|668> H  -1.348734799  -3.887140421   0.731422308
|669> H   0.044470022  -4.060039252  -0.298730242
|670> C  -0.176894649  -2.208860767   0.796525927
|671> N   0.257972116  -1.390877334   1.465320088
|672> C  -0.160743323   3.164883328  -1.590826021
|673> H   0.656672104   3.504001361  -2.179371065
|674> H  -0.868968315   4.022379693  -1.220720286
|675> H  -0.692830881   2.409050082  -2.211373257
|676> C   0.335048993   2.320626384  -0.597461041
|677> N   0.652449322   1.484550388   0.121072338
|678> *
|679> 
|680> 
|681> $new_job
|682> 
|683> # 48mecn.sphere.gfn2.md.500k.prod1.3mecn.cm.17.dset.2mecn-orca.engrad-mp2.def2tzvp-14800.to.14847
|684> ! MP2 def2-TZVP EnGrad TightSCF FrozenCore
|685> 
|686> %pal
|687>     nprocs 12
|688> end
|689> 
|690> %maxcore 8000
|691> 
|692> %scf
|693>     ConvForced true
|694> end
|695> 
|696> *xyz 0 1
|697> C   1.564748705  -5.876707690   1.024615044
|698> H   1.105640817  -6.652991785   0.448970406
|699> H   1.318367266  -6.056189860   2.134490747
|700> H   2.639328644  -5.592694810   0.826922157
|701> C   0.714355178  -4.707918261   0.673234236
|702> N  -0.070429045  -3.877198065   0.501647484
|703> C  -1.179212734   5.678524582  -1.605778395
|704> H  -0.361797307   6.017642614  -2.194323439
|705> H  -1.887437726   6.536020947  -1.235672660
|706> H  -1.711300292   4.922691335  -2.226325631
|707> C  -0.683420418   4.834267637  -0.612413415
|708> N  -0.366020089   3.998191641   0.106119964
|709> *
|710> 
|711> 
|712> $new_job
|713> 
|714> # 48mecn.sphere.gfn2.md.500k.prod1.3mecn.cm.17.dset.2mecn-orca.engrad-mp2.def2tzvp-14800.to.14847
|715> ! MP2 def2-TZVP EnGrad TightSCF FrozenCore
|716> 
|717> %pal
|718>     nprocs 12
|719> end
|720> 
|721> %maxcore 8000
|722> 
|723> %scf
|724>     ConvForced true
|725> end
|726> 
|727> *xyz 0 1
|728> C  -2.603797702   0.374501798  -2.342408260
|729> H  -3.376988851  -0.280281347  -2.846907802
|730> H  -1.859045408  -0.188904736  -1.774788114
|731> H  -1.954379606   0.664371684  -3.164285574
|732> C  -3.235827099   1.356071472  -1.561413430
|733> N  -3.741784437   2.153049221  -0.938233017
|734> C   1.973947326  -0.904441358   1.422931719
|735> H   1.905549467  -0.041567934   0.816371796
|736> H   1.323044386  -0.706213892   2.273774803
|737> H   1.490868868  -1.853095147   0.853624357
|738> C   3.301616157  -1.245236181   1.760916603
|739> N   4.403228803  -1.620591870   1.832031481
|740> *
|741> 
|742> 
|743> $new_job
|744> 
|745> # 48mecn.sphere.gfn2.md.500k.prod1.3mecn.cm.17.dset.2mecn-orca.engrad-mp2.def2tzvp-14800.to.14847
|746> ! MP2 def2-TZVP EnGrad TightSCF FrozenCore
|747> 
|748> %pal
|749>     nprocs 12
|750> end
|751> 
|752> %maxcore 8000
|753> 
|754> %scf
|755>     ConvForced true
|756> end
|757> 
|758> *xyz 0 1
|759> C  -4.669640511   0.318179730  -4.839098059
|760> H  -5.442831660  -0.336603414  -5.343597602
|761> H  -3.924888216  -0.245226804  -4.271477913
|762> H  -4.020222414   0.608049616  -5.660975373
|763> C  -5.301669908   1.299749404  -4.058103230
|764> N  -5.807627245   2.096727153  -3.434922817
|765> C   5.808737853  -2.171399717   3.626650864
|766> H   5.306199002  -2.219471652   2.658420718
|767> H   5.470715267  -3.153810449   4.025934681
|768> H   6.910071200  -2.127232887   3.490135360
|769> C   5.167053605  -1.065586970   4.215328942
|770> N   4.637010382  -0.170674072   4.706791829
|771> *
|772> 
|773> 
|774> $new_job
|775> 
|776> # 48mecn.sphere.gfn2.md.500k.prod1.3mecn.cm.17.dset.2mecn-orca.engrad-mp2.def2tzvp-14800.to.14847
|777> ! MP2 def2-TZVP EnGrad TightSCF FrozenCore
|778> 
|779> %pal
|780>     nprocs 12
|781> end
|782> 
|783> %maxcore 8000
|784> 
|785> %scf
|786>     ConvForced true
|787> end
|788> 
|789> *xyz 0 1
|790> C  -3.253651245   0.284980805  -2.727182223
|791> H  -3.322049103   1.147854229  -3.333742146
|792> H  -3.904554184   0.483208271  -1.876339139
|793> H  -3.736729703  -0.663672984  -3.296489585
|794> C  -1.925982413  -0.055814018  -2.389197338
|795> N  -0.824369767  -0.431169707  -2.318082460
|796> C   2.646982091  -0.925655486   1.973226721
|797> H   2.144443241  -0.973727421   1.004996576
|798> H   2.308959505  -1.908066218   2.372510539
|799> H   3.748315438  -0.881488656   1.836711218
|800> C   2.005297843   0.180157261   2.561904800
|801> N   1.475254621   1.075070158   3.053367686
|802> *
|803> 
|804> 
|805> $new_job
|806> 
|807> # 48mecn.sphere.gfn2.md.500k.prod1.3mecn.cm.17.dset.2mecn-orca.engrad-mp2.def2tzvp-14800.to.14847
|808> ! MP2 def2-TZVP EnGrad TightSCF FrozenCore
|809> 
|810> %pal
|811>     nprocs 12
|812> end
|813> 
|814> %maxcore 8000
|815> 
|816> %scf
|817>     ConvForced true
|818> end
|819> 
|820> *xyz 0 1
|821> C  -4.164720880   0.190546612  -0.595882405
|822> H  -3.749605486   1.104963405  -0.315512314
|823> H  -3.289888754  -0.473131836  -0.984025612
|824> H  -4.552357462  -0.223276322   0.263070529
|825> C  -5.143801577   0.415188967  -1.609926169
|826> N  -5.809166972   0.519877543  -2.540776870
|827> C   4.443110020  -0.410355019   2.675331560
|828> H   3.788011022   0.517654191   2.885880254
|829> H   5.153793962  -0.453421747   3.534790656
|830> H   3.952855042  -1.355788233   2.755102690
|831> C   5.120842498  -0.366721623   1.429018031
|832> N   5.496408104  -0.309426993   0.327233765
|833> *
|834> 
|835> 
|836> $new_job
|837> 
|838> # 48mecn.sphere.gfn2.md.500k.prod1.3mecn.cm.17.dset.2mecn-orca.engrad-mp2.def2tzvp-14800.to.14847
|839> ! MP2 def2-TZVP EnGrad TightSCF FrozenCore
|840> 
|841> %pal
|842>     nprocs 12
|843> end
|844> 
|845> %maxcore 8000
|846> 
|847> %scf
|848>     ConvForced true
|849> end
|850> 
|851> *xyz 0 1
|852> C   2.041672674  -1.114500412   2.644684537
|853> H   2.456788067  -0.200083619   2.925054628
|854> H   2.916504799  -1.778178860   2.256541330
|855> H   1.654036091  -1.528323346   3.503637471
|856> C   1.062591976  -0.889858057   1.630640773
|857> N   0.397226581  -0.785169481   0.699790072
|858> C  -1.536728452  -0.314577870  -1.680243942
|859> H  -2.533563989  -0.660994061  -1.891474789
|860> H  -1.324328711  -0.617193800  -0.602953102
|861> H  -0.811319800  -1.008998210  -2.209501365
|862> C  -1.201739016   1.117979021  -1.718047745
|863> N  -0.880553305   2.231805924  -1.738266014
|864> *
|865> 
|866> 
|867> $new_job
|868> 
|869> # 48mecn.sphere.gfn2.md.500k.prod1.3mecn.cm.17.dset.2mecn-orca.engrad-mp2.def2tzvp-14800.to.14847
|870> ! MP2 def2-TZVP EnGrad TightSCF FrozenCore
|871> 
|872> %pal
|873>     nprocs 12
|874> end
|875> 
|876> %maxcore 8000
|877> 
|878> %scf
|879>     ConvForced true
|880> end
|881> 
|882> *xyz 0 1
|883> C   5.659386758  -1.350765291   4.378164217
|884> H   5.004287760  -0.422756081   4.588712911
|885> H   6.370070700  -1.393832018   5.237623313
|886> H   5.169131780  -2.296198505   4.457935347
|887> C   6.337119235  -1.307131895   3.131850687
|888> N   6.712684842  -1.249837265   2.030066422
|889> C  -6.526845267   0.050058883  -3.217978227
|890> H  -7.523680804  -0.296357308  -3.429209074
|891> H  -6.314445527  -0.252557047  -2.140687387
|892> H  -5.801436615  -0.644361458  -3.747235651
|893> C  -6.191855832   1.482615774  -3.255782030
|894> N  -5.870670121   2.596442676  -3.276000299
|895> *
|896> 
|897> 
|898> $new_job
|899> 
|900> # 48mecn.sphere.gfn2.md.500k.prod1.3mecn.cm.17.dset.2mecn-orca.engrad-mp2.def2tzvp-14800.to.14847
|901> ! MP2 def2-TZVP EnGrad TightSCF FrozenCore
|902> 
|903> %pal
|904>     nprocs 12
|905> end
|906> 
|907> %maxcore 8000
|908> 
|909> %scf
|910>     ConvForced true
|911> end
|912> 
|913> *xyz 0 1
|914> C   2.635107013  -5.960863699  -2.519802218
|915> H   2.119783908  -6.276326142  -3.389213691
|916> H   2.772942077  -6.687807566  -1.746079227
|917> H   3.684286994  -5.648339949  -2.717578291
|918> C   1.873559194  -4.872227165  -2.027560670
|919> N   1.357317605  -3.877206598  -1.808784647
|920> C  -2.465796029   6.023689335   2.641285360
|921> H  -3.441494927   6.191089539   2.137904471
|922> H  -1.857000460   6.861067604   2.512148625
|923> H  -2.547954016   5.945394713   3.736994211
|924> C  -1.980766845   4.820519351   2.018526766
|925> N  -1.463135246   3.839965287   1.673929840
|926> *
|927> 
|928> 
|929> $new_job
|930> 
|931> # 48mecn.sphere.gfn2.md.500k.prod1.3mecn.cm.17.dset.2mecn-orca.engrad-mp2.def2tzvp-14800.to.14847
|932> ! MP2 def2-TZVP EnGrad TightSCF FrozenCore
|933> 
|934> %pal
|935>     nprocs 12
|936> end
|937> 
|938> %maxcore 8000
|939> 
|940> %scf
|941>     ConvForced true
|942> end
|943> 
|944> *xyz 0 1
|945> C  -0.547525546  -4.372286079  -0.144062821
|946> H  -1.062848651  -4.687748523  -1.013474294
|947> H  -0.409690482  -5.099229947   0.629660170
|948> H   0.501654435  -4.059762329  -0.341838894
|949> C  -1.309073364  -3.283649545   0.348178728
|950> N  -1.825314954  -2.288628978   0.566954750
|951> C   0.185094823   3.994256910   0.161094741
|952> H   0.433661118   4.551031400   1.180564364
|953> H  -0.571233097   3.280536850   0.282163633
|954> H  -0.102405729   4.715210193  -0.623334631
|955> C   1.358028417   3.350844611  -0.319964800
|956> N   2.181228130   2.648688416  -0.613934360
|957> *
|958> 
|959> 
|960> $new_job
|961> 
|962> # 48mecn.sphere.gfn2.md.500k.prod1.3mecn.cm.17.dset.2mecn-orca.engrad-mp2.def2tzvp-14800.to.14847
|963> ! MP2 def2-TZVP EnGrad TightSCF FrozenCore
|964> 
|965> %pal
|966>     nprocs 12
|967> end
|968> 
|969> %maxcore 8000
|970> 
|971> %scf
|972>     ConvForced true
|973> end
|974> 
|975> *xyz 0 1
|976> C  -3.655629505   2.662948728   2.876637865
|977> H  -4.631328403   2.830348931   2.373256976
|978> H  -3.046833936   3.500326996   2.747501130
|979> H  -3.737787492   2.584654106   3.972346716
|980> C  -3.170600321   1.459778744   2.253879271
|981> N  -2.652968722   0.479224680   1.909282345
|982> C   2.177893905  -0.955061317  -1.979292151
|983> H   2.426460200  -0.398286826  -0.959822528
|984> H   1.421565985  -1.668781377  -1.858223259
|985> H   1.890393353  -0.234108034  -2.763721523
|986> C   3.350827499  -1.598473616  -2.460351692
|987> N   4.174027212  -2.300629811  -2.754321253
|988> *
|989> 
|990> 
|991> $new_job
|992> 
|993> # 48mecn.sphere.gfn2.md.500k.prod1.3mecn.cm.17.dset.2mecn-orca.engrad-mp2.def2tzvp-14800.to.14847
|994> ! MP2 def2-TZVP EnGrad TightSCF FrozenCore
|995> 
|996> %pal
|997>     nprocs 12
|998> end
|999> 
|1000> %maxcore 8000
|1001> 
|1002> %scf
|1003>     ConvForced true
|1004> end
|1005> 
|1006> *xyz 0 1
|1007> C   1.560766271   2.662365276  -5.836972594
|1008> H   2.291710224   2.287802088  -6.625165203
|1009> H   1.345084794   3.732553301  -6.185580784
|1010> H   0.803471178   2.006827299  -5.910502261
|1011> C   2.125023821   2.471280203  -4.550589917
|1012> N   2.679207103   2.345098722  -3.551779134
|1013> C  -1.663296986  -2.030732073   5.841078190
|1014> H  -2.018746152  -2.381886519   6.733318845
|1015> H  -1.982731289  -1.053900430   5.849272013
|1016> H  -0.616252889  -2.115053967   5.694763496
|1017> C  -2.202955271  -2.569268203   4.575975501
|1018> N  -2.511703044  -2.980851140   3.558432989
|1019> *
|1020> 
|1021> 
|1022> $new_job
|1023> 
|1024> # 48mecn.sphere.gfn2.md.500k.prod1.3mecn.cm.17.dset.2mecn-orca.engrad-mp2.def2tzvp-14800.to.14847
|1025> ! MP2 def2-TZVP EnGrad TightSCF FrozenCore
|1026> 
|1027> %pal
|1028>     nprocs 12
|1029> end
|1030> 
|1031> %maxcore 8000
|1032> 
|1033> %scf
|1034>     ConvForced true
|1035> end
|1036> 
|1037> *xyz 0 1
|1038> C  -1.669652741   1.844342990  -1.224706848
|1039> H  -0.938708787   1.469779801  -2.012899457
|1040> H  -1.885334218   2.914531015  -1.573315038
|1041> H  -2.426947833   1.188805013  -1.298236515
|1042> C  -1.105395190   1.653257917   0.061675829
|1043> N  -0.551211909   1.527076436   1.060486612
|1044> C   2.099236160  -0.947611640   0.278131924
|1045> H   2.608744935  -1.259887771   1.125525546
|1046> H   1.811177297   0.093330326   0.428455715
|1047> H   2.685492422  -0.835714691  -0.610414514
|1048> C   0.983899221  -1.753857341   0.129236277
|1049> N   0.153610983  -2.466649553  -0.128986652
|1050> *
|1051> 
|1052> 
|1053> $new_job
|1054> 
|1055> # 48mecn.sphere.gfn2.md.500k.prod1.3mecn.cm.17.dset.2mecn-orca.engrad-mp2.def2tzvp-14800.to.14847
|1056> ! MP2 def2-TZVP EnGrad TightSCF FrozenCore
|1057> 
|1058> %pal
|1059>     nprocs 12
|1060> end
|1061> 
|1062> %maxcore 8000
|1063> 
|1064> %scf
|1065>     ConvForced true
|1066> end
|1067> 
|1068> *xyz 0 1
|1069> C  -2.792184801  -0.349564835   5.742741174
|1070> H  -3.147633966  -0.700719281   6.634981829
|1071> H  -3.111619104   0.627266808   5.750934996
|1072> H  -1.745140704  -0.433886730   5.596426480
|1073> C  -3.331843086  -0.888100965   4.477638484
|1074> N  -3.640590859  -1.299683902   3.460095972
|1075> C   4.200767356   1.551577884  -4.432470839
|1076> H   4.710276131   1.239301753  -3.585077216
|1077> H   3.912708494   2.592519850  -4.282147048
|1078> H   4.787023619   1.663474833  -5.321017277
|1079> C   3.085430417   0.745332183  -4.581366486
|1080> N   2.255142180   0.032539971  -4.839589414
|1081> *
|1082> 
|1083> 
|1084> $new_job
|1085> 
|1086> # 48mecn.sphere.gfn2.md.500k.prod1.3mecn.cm.17.dset.2mecn-orca.engrad-mp2.def2tzvp-14800.to.14847
|1087> ! MP2 def2-TZVP EnGrad TightSCF FrozenCore
|1088> 
|1089> %pal
|1090>     nprocs 12
|1091> end
|1092> 
|1093> %maxcore 8000
|1094> 
|1095> %scf
|1096>     ConvForced true
|1097> end
|1098> 
|1099> *xyz 0 1
|1100> C  -0.781793070  -3.555555614  -1.145310412
|1101> H  -0.240765470  -2.673064536  -1.335093005
|1102> H  -1.132067292  -4.002326924  -2.161859135
|1103> H  -0.225835952  -4.358328252  -0.740789180
|1104> C  -1.840827446  -3.133688187  -0.378763580
|1105> N  -2.487419844  -2.537052957   0.381002843
|1106> C   1.448366415   4.311410747   0.531352831
|1107> H   0.444705730   4.551879589   0.106544750
|1108> H   2.172148103   4.756303123  -0.278115168
|1109> H   1.593239225   4.900426300   1.433549203
|1110> C   1.653616188   2.944249618   0.437614874
|1111> N   1.888491720   1.822936883   0.309087135
|1112> *
|1113> 
|1114> 
|1115> $new_job
|1116> 
|1117> # 48mecn.sphere.gfn2.md.500k.prod1.3mecn.cm.17.dset.2mecn-orca.engrad-mp2.def2tzvp-14800.to.14847
|1118> ! MP2 def2-TZVP EnGrad TightSCF FrozenCore
|1119> 
|1120> %pal
|1121>     nprocs 12
|1122> end
|1123> 
|1124> %maxcore 8000
|1125> 
|1126> %scf
|1127>     ConvForced true
|1128> end
|1129> 
|1130> *xyz 0 1
|1131> C  -4.484439431  -1.760124914  -2.235609414
|1132> H  -3.943411831  -0.877633836  -2.425392008
|1133> H  -4.834713653  -2.206896225  -3.252158138
|1134> H  -3.928482313  -2.562897552  -1.831088183
|1135> C  -5.543473807  -1.338257487  -1.469062582
|1136> N  -6.190066205  -0.741622257  -0.709296160
|1137> C   4.622473901   2.280539635   1.799144652
|1138> H   4.344578806   2.426151579   2.842584390
|1139> H   3.744759755   2.110505855   1.031631118
|1140> H   5.086206060   3.219323129   1.544296064
|1141> C   5.475252016   1.210152873   1.456528175
|1142> N   6.096463792   0.253519903   1.244679821
|1143> *
|1144> 
|1145> 
|1146> $new_job
|1147> 
|1148> # 48mecn.sphere.gfn2.md.500k.prod1.3mecn.cm.17.dset.2mecn-orca.engrad-mp2.def2tzvp-14800.to.14847
|1149> ! MP2 def2-TZVP EnGrad TightSCF FrozenCore
|1150> 
|1151> %pal
|1152>     nprocs 12
|1153> end
|1154> 
|1155> %maxcore 8000
|1156> 
|1157> %scf
|1158>     ConvForced true
|1159> end
|1160> 
|1161> *xyz 0 1
|1162> C  -3.909556549   3.013222674  -0.978881653
|1163> H  -4.913217233   3.253691515  -1.403689734
|1164> H  -3.185774861   3.458115049  -1.788349652
|1165> H  -3.764683738   3.602238226  -0.076685281
|1166> C  -3.704306775   1.646061545  -1.072619610
|1167> N  -3.469431244   0.524748809  -1.201147349
|1168> C   2.967197299  -0.813079139   1.379209170
|1169> H   2.689302204  -0.667467194   2.422648908
|1170> H   2.089483153  -0.983112919   0.611695637
|1171> H   3.430929457   0.125704355   1.124360582
|1172> C   3.819975414  -1.883465900   1.036592694
|1173> N   4.441187190  -2.840098871   0.824744340
|1174> *
|1175> 
|1176> 
|1177> $new_job
|1178> 
|1179> # 48mecn.sphere.gfn2.md.500k.prod1.3mecn.cm.17.dset.2mecn-orca.engrad-mp2.def2tzvp-14800.to.14847
|1180> ! MP2 def2-TZVP EnGrad TightSCF FrozenCore
|1181> 
|1182> %pal
|1183>     nprocs 12
|1184> end
|1185> 
|1186> %maxcore 8000
|1187> 
|1188> %scf
|1189>     ConvForced true
|1190> end
|1191> 
|1192> *xyz 0 1
|1193> C  -2.397385785   1.027289946  -4.088946729
|1194> H  -3.226736324   1.744636550  -4.304634665
|1195> H  -1.459521795   1.644305008  -4.204552587
|1196> H  -2.719394178   0.645596894  -3.080037999
|1197> C  -2.427227619  -0.067603924  -4.975709525
|1198> N  -2.593951371  -0.875603803  -5.768621073
|1199> C   2.009208801   1.067568390   5.359480396
|1200> H   2.751883950   1.536562894   6.032674819
|1201> H   1.130371949   0.642175517   5.921413989
|1202> H   1.891183160   1.792035393   4.521245289
|1203> C   2.571708450  -0.198966340   4.787799012
|1204> N   2.920351682  -1.268060381   4.488759826
|1205> *
|1206> 
|1207> 
|1208> $new_job
|1209> 
|1210> # 48mecn.sphere.gfn2.md.500k.prod1.3mecn.cm.17.dset.2mecn-orca.engrad-mp2.def2tzvp-14800.to.14847
|1211> ! MP2 def2-TZVP EnGrad TightSCF FrozenCore
|1212> 
|1213> %pal
|1214>     nprocs 12
|1215> end
|1216> 
|1217> %maxcore 8000
|1218> 
|1219> %scf
|1220>     ConvForced true
|1221> end
|1222> 
|1223> *xyz 0 1
|1224> C  -1.973766604   4.101209859  -0.513292474
|1225> H  -2.803117144   4.818556464  -0.728980410
|1226> H  -1.035902615   4.718224921  -0.628898333
|1227> H  -2.295774998   3.719516808   0.495616256
|1228> C  -2.003608439   3.006315989  -1.400055271
|1229> N  -2.170332190   2.198316111  -2.192966819
|1230> C   1.736077701  -3.951373225   0.412241937
|1231> H   2.164324521  -3.901304033  -0.620058495
|1232> H   0.656270353  -3.832675163   0.474836882
|1233> H   1.885266833  -4.936487065   0.666720045
|1234> C   2.162726529  -3.091352850   1.453011596
|1235> N   2.340521162  -2.296031532   2.258724323
|1236> *
|1237> 
|1238> 
|1239> $new_job
|1240> 
|1241> # 48mecn.sphere.gfn2.md.500k.prod1.3mecn.cm.17.dset.2mecn-orca.engrad-mp2.def2tzvp-14800.to.14847
|1242> ! MP2 def2-TZVP EnGrad TightSCF FrozenCore
|1243> 
|1244> %pal
|1245>     nprocs 12
|1246> end
|1247> 
|1248> %maxcore 8000
|1249> 
|1250> %scf
|1251>     ConvForced true
|1252> end
|1253> 
|1254> *xyz 0 1
|1255> C  -0.045600636   4.222550423   4.030264080
|1256> H   0.697074513   4.691544928   4.703458503
|1257> H  -0.924437487   3.797157550   4.592197672
|1258> H  -0.163626276   4.947017426   3.192028973
|1259> C   0.516899014   2.956015694   3.458582696
|1260> N   0.865542245   1.886921652   3.159543510
|1261> C  -0.742350915  -3.870311106  -4.492628633
|1262> H  -0.314104095  -3.820241914  -5.524929065
|1263> H  -1.822158263  -3.751613043  -4.430033689
|1264> H  -0.593161783  -4.855424946  -4.238150526
|1265> C  -0.315702087  -3.010290731  -3.451858974
|1266> N  -0.137907454  -2.214969412  -2.646146247
|1267> *
|1268> 
|1269> 
|1270> $new_job
|1271> 
|1272> # 48mecn.sphere.gfn2.md.500k.prod1.3mecn.cm.17.dset.2mecn-orca.engrad-mp2.def2tzvp-14800.to.14847
|1273> ! MP2 def2-TZVP EnGrad TightSCF FrozenCore
|1274> 
|1275> %pal
|1276>     nprocs 12
|1277> end
|1278> 
|1279> %maxcore 8000
|1280> 
|1281> %scf
|1282>     ConvForced true
|1283> end
|1284> 
|1285> *xyz 0 1
|1286> C   3.453493193  -1.855353121   1.796852099
|1287> H   2.775822181  -1.100924084   2.067618485
|1288> H   3.874730911  -1.584217031   0.820626934
|1289> H   4.060881181  -1.945295322   2.759731785
|1290> C   2.470539005  -2.889105549   1.433208705
|1291> N   1.772096434  -3.789022271   1.201781090
|1292> C  -1.778927406   3.671521353  -1.813445699
|1293> H  -1.332661668   4.078206883  -0.949308233
|1294> H  -2.401619503   4.655648520  -1.992859539
|1295> H  -0.993876177   3.503800736  -2.532914290
|1296> C  -2.676343372   2.699389330  -1.372527490
|1297> N  -3.461993357   1.847064298  -1.252024105
|1298> *
|1299> 
|1300> 
|1301> $new_job
|1302> 
|1303> # 48mecn.sphere.gfn2.md.500k.prod1.3mecn.cm.17.dset.2mecn-orca.engrad-mp2.def2tzvp-14800.to.14847
|1304> ! MP2 def2-TZVP EnGrad TightSCF FrozenCore
|1305> 
|1306> %pal
|1307>     nprocs 12
|1308> end
|1309> 
|1310> %maxcore 8000
|1311> 
|1312> %scf
|1313>     ConvForced true
|1314> end
|1315> 
|1316> *xyz 0 1
|1317> C   3.288106608  -3.936258492  -2.252859383
|1318> H   2.610435596  -3.181829456  -1.982092997
|1319> H   3.709344327  -3.665122403  -3.229084548
|1320> H   3.895494597  -4.026200693  -1.289979697
|1321> C   2.305152421  -4.970010920  -2.616502777
|1322> N   1.606709849  -5.869927643  -2.847930392
|1323> C  -1.871504863   4.044427766   1.742847807
|1324> H  -2.571963549   3.066688518   1.706076187
|1325> H  -1.011779232   3.803197501   2.249321364
|1326> H  -1.688895627   4.448636715   0.737448932
|1327> C  -2.563214938   4.928154542   2.672199696
|1328> N  -2.955731627   5.781021816   3.367593519
|1329> *
|1330> 
|1331> 
|1332> $new_job
|1333> 
|1334> # 48mecn.sphere.gfn2.md.500k.prod1.3mecn.cm.17.dset.2mecn-orca.engrad-mp2.def2tzvp-14800.to.14847
|1335> ! MP2 def2-TZVP EnGrad TightSCF FrozenCore
|1336> 
|1337> %pal
|1338>     nprocs 12
|1339> end
|1340> 
|1341> %maxcore 8000
|1342> 
|1343> %scf
|1344>     ConvForced true
|1345> end
|1346> 
|1347> *xyz 0 1
|1348> C   0.656505117  -1.203996456  -4.369419593
|1349> H   1.102770855  -0.797310925  -3.505282127
|1350> H   0.033813020  -0.219869288  -4.548833434
|1351> H   1.441556346  -1.371717073  -5.088888184
|1352> C  -0.240910849  -2.176128478  -3.928501384
|1353> N  -1.026560834  -3.028453510  -3.807997999
|1354> C   0.729314245   1.249815330   3.236585395
|1355> H   0.028855558   0.272076082   3.199813775
|1356> H   1.589039875   1.008585064   3.743058952
|1357> H   0.911923480   1.654024278   2.231186519
|1358> C   0.037604170   2.133542105   4.165937284
|1359> N  -0.354912520   2.986409380   4.861331106
|1360> *
|1361> 
|1362> 
|1363> $new_job
|1364> 
|1365> # 48mecn.sphere.gfn2.md.500k.prod1.3mecn.cm.17.dset.2mecn-orca.engrad-mp2.def2tzvp-14800.to.14847
|1366> ! MP2 def2-TZVP EnGrad TightSCF FrozenCore
|1367> 
|1368> %pal
|1369>     nprocs 12
|1370> end
|1371> 
|1372> %maxcore 8000
|1373> 
|1374> %scf
|1375>     ConvForced true
|1376> end
|1377> 
|1378> *xyz 0 1
|1379> C   1.179563160   1.168221959  -1.062805342
|1380> H   0.863135002   1.469220068  -0.112178980
|1381> H   0.176006589   0.746905310  -1.366768775
|1382> H   1.485367164   2.008889041  -1.747835598
|1383> C   2.194532505   0.118381586  -1.018317775
|1384> N   2.973309393  -0.597297112  -0.633626250
|1385> C  -2.292331634  -1.269211417   1.635451008
|1386> H  -3.395999721  -1.312078749   1.700618309
|1387> H  -1.762161574  -1.255550373   2.575162346
|1388> H  -1.897732571  -2.032786247   0.994504243
|1389> C  -2.018317977  -0.123623929   0.863265080
|1390> N  -1.844217295   0.715396124   0.128526297
|1391> *
|1392> 
|1393> 
|1394> $new_job
|1395> 
|1396> # 48mecn.sphere.gfn2.md.500k.prod1.3mecn.cm.17.dset.2mecn-orca.engrad-mp2.def2tzvp-14800.to.14847
|1397> ! MP2 def2-TZVP EnGrad TightSCF FrozenCore
|1398> 
|1399> %pal
|1400>     nprocs 12
|1401> end
|1402> 
|1403> %maxcore 8000
|1404> 
|1405> %scf
|1406>     ConvForced true
|1407> end
|1408> 
|1409> *xyz 0 1
|1410> C   0.174431074   2.607609168   0.087987743
|1411> H  -0.141997084   2.908607277   1.038614104
|1412> H  -0.829125497   2.186292519  -0.215975690
|1413> H   0.480235078   3.448276250  -0.597042514
|1414> C   1.189400419   1.557768794   0.132475309
|1415> N   1.968177307   0.842090097   0.517166835
|1416> C  -0.601124780  -2.172004247  -1.277380041
|1417> H  -0.985306733  -1.651926399  -2.175261038
|1418> H  -0.694252329  -3.216131001  -1.304983227
|1419> H   0.404083574  -1.920617253  -1.138905939
|1420> C  -1.126457892  -1.614427927  -0.155280568
|1421> N  -1.529184828  -1.293257455   0.838353991
|1422> *
|1423> 
|1424> 
|1425> $new_job
|1426> 
|1427> # 48mecn.sphere.gfn2.md.500k.prod1.3mecn.cm.17.dset.2mecn-orca.engrad-mp2.def2tzvp-14800.to.14847
|1428> ! MP2 def2-TZVP EnGrad TightSCF FrozenCore
|1429> 
|1430> %pal
|1431>     nprocs 12
|1432> end
|1433> 
|1434> %maxcore 8000
|1435> 
|1436> %scf
|1437>     ConvForced true
|1438> end
|1439> 
|1440> *xyz 0 1
|1441> C   2.138544064  -2.101247974  -2.002466530
|1442> H   1.576359118  -1.399228980  -2.801924419
|1443> H   1.556495913  -2.685090284  -1.275016733
|1444> H   2.939826659  -2.830460484  -2.362890713
|1445> C   2.713473254  -0.980657193  -1.242542634
|1446> N   3.157964255  -0.160535208  -0.578028931
|1447> C  -3.389461155   1.815677315   0.581944696
|1448> H  -4.307555446   1.694420576   1.174784738
|1449> H  -3.473816961   1.408651236  -0.425872393
|1450> H  -3.351783488   2.875673378   0.486915188
|1451> C  -2.521834707   1.024492610   1.339898790
|1452> N  -1.885572937   0.435160264   2.087014036
|1453> *
|1454> 
|1455> 
|1456> $new_job
|1457> 
|1458> # 48mecn.sphere.gfn2.md.500k.prod1.3mecn.cm.17.dset.2mecn-orca.engrad-mp2.def2tzvp-14800.to.14847
|1459> ! MP2 def2-TZVP EnGrad TightSCF FrozenCore
|1460> 
|1461> %pal
|1462>     nprocs 12
|1463> end
|1464> 
|1465> %maxcore 8000
|1466> 
|1467> %scf
|1468>     ConvForced true
|1469> end
|1470> 
|1471> *xyz 0 1
|1472> C   0.478842205  -2.213509659  -4.489156596
|1473> H  -0.083342741  -1.511490664  -5.288614484
|1474> H  -0.103205946  -2.797351969  -3.761706799
|1475> H   1.280124800  -2.942722169  -4.849580779
|1476> C   1.053771395  -1.092918878  -3.729232699
|1477> N   1.498262395  -0.272796892  -3.064718996
|1478> C  -0.507412774   0.559350199   2.860459395
|1479> H  -0.470733018   0.964760445   1.769555021
|1480> H  -1.117431934  -0.417982279   2.841722025
|1481> H   0.446525877   0.191144690   3.070428509
|1482> C  -1.064450247   1.321977511   3.892778339
|1483> N  -1.461150182   1.963420398   4.768424463
|1484> *
|1485> 
[...]


                *******************************************
                * RELAXED MP2 DENSITY POPULATION ANALYSIS *
                *******************************************

------------------------------------------------------------------------------
                           ORCA POPULATION ANALYSIS
------------------------------------------------------------------------------
Input electron density              ... 48mecn.sphere.gfn2.md.500k.prod1.3mecn.cm.17.dset.2mecn-orca.engrad-mp2.def2tzvp-14800.to.14847_job48.pmp2re
BaseName (.gbw .S,...)              ... 48mecn.sphere.gfn2.md.500k.prod1.3mecn.cm.17.dset.2mecn-orca.engrad-mp2.def2tzvp-14800.to.14847_job48

                    ********************************
                    * MULLIKEN POPULATION ANALYSIS *
                    ********************************

-----------------------
MULLIKEN ATOMIC CHARGES
-----------------------
   0 C :   -0.297544
   1 H :    0.182169
   2 H :    0.172518
   3 H :    0.178358
   4 C :   -0.167113
   5 N :   -0.068345
   6 C :   -0.315296
   7 H :    0.192193
   8 H :    0.171422
   9 H :    0.180482
  10 C :   -0.152543
  11 N :   -0.076301
Sum of atomic charges:   -0.0000000

--------------------------------
MULLIKEN REDUCED ORBITAL CHARGES
--------------------------------
  0 C s       :     3.232159  s :     3.232159
      pz      :     1.016428  p :     2.981357
      px      :     1.050316
      py      :     0.914613
      dz2     :     0.011827  d :     0.076888
      dxz     :     0.014896
      dyz     :     0.019568
      dx2y2   :     0.010839
      dxy     :     0.019758
      f0      :     0.000723  f :     0.007139
      f+1     :     0.000804
      f-1     :     0.000881
      f+2     :     0.000847
      f-2     :     0.002104
      f+3     :     0.000976
      f-3     :     0.000805
  1 H s       :     0.796983  s :     0.796983
      pz      :     0.007891  p :     0.020848
      px      :     0.005727
      py      :     0.007229
  2 H s       :     0.803151  s :     0.803151
      pz      :     0.009161  p :     0.024331
      px      :     0.007373
      py      :     0.007797
  3 H s       :     0.799092  s :     0.799092
      pz      :     0.005042  p :     0.022550
      px      :     0.009022
      py      :     0.008486
  4 C s       :     3.227034  s :     3.227034
      pz      :     0.929810  p :     2.813425
      px      :     0.919362
      py      :     0.964253
      dz2     :     0.023826  d :     0.107712
      dxz     :     0.018538
      dyz     :     0.022116
      dx2y2   :     0.021790
      dxy     :     0.021442
      f0      :     0.001664  f :     0.018942
      f+1     :     0.001761
      f-1     :     0.004126
      f+2     :     0.003357
      f-2     :     0.002809
      f+3     :     0.002233
      f-3     :     0.002992
  5 N s       :     3.616438  s :     3.616438
      pz      :     1.119651  p :     3.377902
      px      :     1.081744
      py      :     1.176507
      dz2     :     0.016598  d :     0.068675
      dxz     :     0.011267
      dyz     :     0.012421
      dx2y2   :     0.015118
      dxy     :     0.013270
      f0      :     0.000598  f :     0.005331
      f+1     :     0.000589
      f-1     :     0.001062
      f+2     :     0.000874
      f-2     :     0.000742
      f+3     :     0.000636
      f-3     :     0.000829
  6 C s       :     3.166865  s :     3.166865
      pz      :     0.982931  p :     3.058575
      px      :     1.056355
      py      :     1.019288
      dz2     :     0.024009  d :     0.082679
      dxz     :     0.012201
      dyz     :     0.012669
      dx2y2   :     0.014737
      dxy     :     0.019063
      f0      :     0.001151  f :     0.007177
      f+1     :     0.000875
      f-1     :     0.001534
      f+2     :     0.000765
      f-2     :     0.000990
      f+3     :     0.000983
      f-3     :     0.000878
  7 H s       :     0.786374  s :     0.786374
      pz      :     0.012471  p :     0.021433
      px      :     0.004196
      py      :     0.004765
  8 H s       :     0.806272  s :     0.806272
      pz      :     0.004298  p :     0.022306
      px      :     0.007024
      py      :     0.010983
  9 H s       :     0.793325  s :     0.793325
      pz      :     0.005534  p :     0.026194
      px      :     0.013330
      py      :     0.007329
 10 C s       :     3.197125  s :     3.197125
      pz      :     0.963050  p :     2.827774
      px      :     0.930906
      py      :     0.933819
      dz2     :     0.030205  d :     0.107683
      dxz     :     0.019185
      dyz     :     0.023212
      dx2y2   :     0.020037
      dxy     :     0.015044
      f0      :     0.004072  f :     0.019961
      f+1     :     0.002485
      f-1     :     0.003228
      f+2     :     0.004131
      f-2     :     0.003127
      f+3     :     0.001246
      f-3     :     0.001671
 11 N s       :     3.631191  s :     3.631191
      pz      :     1.174973  p :     3.372136
      px      :     1.085599
      py      :     1.111564
      dz2     :     0.018419  d :     0.067769
      dxz     :     0.013943
      dyz     :     0.012926
      dx2y2   :     0.011799
      dxy     :     0.010682
      f0      :     0.000976  f :     0.005205
      f+1     :     0.000697
      f-1     :     0.000816
      f+2     :     0.000931
      f-2     :     0.000768
      f+3     :     0.000485
      f-3     :     0.000533


                     *******************************
                     * LOEWDIN POPULATION ANALYSIS *
                     *******************************

----------------------
LOEWDIN ATOMIC CHARGES
----------------------
   0 C :   -0.297899
   1 H :    0.192076
   2 H :    0.152895
   3 H :    0.159895
   4 C :   -0.250646
   5 N :    0.043695
   6 C :   -0.298985
   7 H :    0.169722
   8 H :    0.173229
   9 H :    0.139073
  10 C :   -0.239798
  11 N :    0.056741

-------------------------------
LOEWDIN REDUCED ORBITAL CHARGES
-------------------------------
  0 C s       :     2.856927  s :     2.856927
      pz      :     1.056057  p :     3.146834
      px      :     1.067139
      py      :     1.023638
      dz2     :     0.031369  d :     0.264271
      dxz     :     0.049344
      dyz     :     0.075879
      dx2y2   :     0.032309
      dxy     :     0.075370
      f0      :     0.003686  f :     0.029866
      f+1     :     0.002299
      f-1     :     0.005937
      f+2     :     0.003779
      f-2     :     0.005241
      f+3     :     0.004344
      f-3     :     0.004580
  1 H s       :     0.755928  s :     0.755928
      pz      :     0.019175  p :     0.051996
      px      :     0.013909
      py      :     0.018912
  2 H s       :     0.780737  s :     0.780737
      pz      :     0.026371  p :     0.066368
      px      :     0.020584
      py      :     0.019413
  3 H s       :     0.780316  s :     0.780316
      pz      :     0.013278  p :     0.059789
      px      :     0.025617
      py      :     0.020893
  4 C s       :     2.844083  s :     2.844083
      pz      :     0.953313  p :     2.878992
      px      :     0.897588
      py      :     1.028091
      dz2     :     0.088879  d :     0.460050
      dxz     :     0.072258
      dyz     :     0.111780
      dx2y2   :     0.090198
      dxy     :     0.096936
      f0      :     0.006447  f :     0.067520
      f+1     :     0.004907
      f-1     :     0.013602
      f+2     :     0.012145
      f-2     :     0.013331
      f+3     :     0.008428
      f-3     :     0.008660
  5 N s       :     3.292558  s :     3.292558
      pz      :     1.163355  p :     3.502414
      px      :     1.077087
      py      :     1.261972
      dz2     :     0.027337  d :     0.140548
      dxz     :     0.021924
      dyz     :     0.035657
      dx2y2   :     0.027568
      dxy     :     0.028061
      f0      :     0.002143  f :     0.020785
      f+1     :     0.001585
      f-1     :     0.004108
      f+2     :     0.003674
      f-2     :     0.004251
      f+3     :     0.002507
      f-3     :     0.002518
  6 C s       :     2.814869  s :     2.814869
      pz      :     1.050706  p :     3.155688
      px      :     1.062532
      py      :     1.042450
      dz2     :     0.094876  d :     0.295108
      dxz     :     0.038556
      dyz     :     0.053046
      dx2y2   :     0.047803
      dxy     :     0.060827
      f0      :     0.004711  f :     0.033319
      f+1     :     0.004966
      f-1     :     0.006166
      f+2     :     0.005238
      f-2     :     0.004826
      f+3     :     0.004189
      f-3     :     0.003224
  7 H s       :     0.774350  s :     0.774350
      pz      :     0.032612  p :     0.055928
      px      :     0.010477
      py      :     0.012839
  8 H s       :     0.769753  s :     0.769753
      pz      :     0.010696  p :     0.057018
      px      :     0.018819
      py      :     0.027503
  9 H s       :     0.785568  s :     0.785568
      pz      :     0.016916  p :     0.075358
      px      :     0.038092
      py      :     0.020350
 10 C s       :     2.825380  s :     2.825380
      pz      :     1.038197  p :     2.866380
      px      :     0.885952
      py      :     0.942231
      dz2     :     0.128571  d :     0.477957
      dxz     :     0.093406
      dyz     :     0.118411
      dx2y2   :     0.072766
      dxy     :     0.064802
      f0      :     0.011692  f :     0.070081
      f+1     :     0.009086
      f-1     :     0.014885
      f+2     :     0.012937
      f-2     :     0.013442
      f+3     :     0.003714
      f-3     :     0.004326
 11 N s       :     3.296601  s :     3.296601
      pz      :     1.273360  p :     3.488977
      px      :     1.069771
      py      :     1.145846
      dz2     :     0.035031  d :     0.137753
      dxz     :     0.028275
      dyz     :     0.036248
      dx2y2   :     0.018986
      dxy     :     0.019214
      f0      :     0.003192  f :     0.019928
      f+1     :     0.002594
      f-1     :     0.004424
      f+2     :     0.003507
      f-2     :     0.003801
      f+3     :     0.001206
      f-3     :     0.001203


                      *****************************
                      * MAYER POPULATION ANALYSIS *
                      *****************************

  NA   - Mulliken gross atomic population
  ZA   - Total nuclear charge
  QA   - Mulliken gross atomic charge
  VA   - Mayer's total valence
  BVA  - Mayer's bonded valence
  FA   - Mayer's free valence

  ATOM       NA         ZA         QA         VA         BVA        FA
  0 C      6.2975     6.0000    -0.2975     3.9151     3.6199     0.2952
  1 H      0.8178     1.0000     0.1822     0.9596     0.9065     0.0531
  2 H      0.8275     1.0000     0.1725     0.9635     0.9159     0.0476
  3 H      0.8216     1.0000     0.1784     0.9624     0.9133     0.0491
  4 C      6.1671     6.0000    -0.1671     4.1506     3.7315     0.4191
  5 N      7.0683     7.0000    -0.0683     3.3521     2.8937     0.4584
  6 C      6.3153     6.0000    -0.3153     3.9393     3.6472     0.2921
  7 H      0.8078     1.0000     0.1922     0.9566     0.9066     0.0500
  8 H      0.8286     1.0000     0.1714     0.9576     0.9053     0.0523
  9 H      0.8195     1.0000     0.1805     0.9597     0.9146     0.0450
 10 C      6.1525     6.0000    -0.1525     4.1713     3.7562     0.4150
 11 N      7.0763     7.0000    -0.0763     3.3531     2.8873     0.4658

  Mayer bond orders larger than 0.100000
B(  0-C ,  1-H ) :   0.8964 B(  0-C ,  2-H ) :   0.9180 B(  0-C ,  3-H ) :   0.9131 
B(  0-C ,  4-C ) :   0.8953 B(  4-C ,  5-N ) :   2.8593 B(  6-C ,  7-H ) :   0.8967 
B(  6-C ,  8-H ) :   0.9039 B(  6-C ,  9-H ) :   0.9202 B(  6-C , 10-C ) :   0.9304 
B( 10-C , 11-N ) :   2.8413 


----------------------------------
MP2 DERIVATIVE INTEGRAL GENERATION
----------------------------------


Input Wavefunction Amplitudes       ... 48mecn.sphere.gfn2.md.500k.prod1.3mecn.cm.17.dset.2mecn-orca.engrad-mp2.def2tzvp-14800.to.14847_job48.mp2tsaa.tmp
Input Correlated Electron Density   ... 48mecn.sphere.gfn2.md.500k.prod1.3mecn.cm.17.dset.2mecn-orca.engrad-mp2.def2tzvp-14800.to.14847_job48.pmp2re
Input Energy Weighted Density       ... 48mecn.sphere.gfn2.md.500k.prod1.3mecn.cm.17.dset.2mecn-orca.engrad-mp2.def2tzvp-14800.to.14847_job48.wmp2.tmp
Input SCF Electron Density          ... 48mecn.sphere.gfn2.md.500k.prod1.3mecn.cm.17.dset.2mecn-orca.engrad-mp2.def2tzvp-14800.to.14847_job48.scfp

One-Electron Terms    ...
                        ... One-Electron Terms done
Prescreening matrices              ... done

Batch handling in the gradient evaluation:
Memory available                      ... 8000.0 MB
Memory per occupied orbital in Q2     ...    6.0 MB
Memory per occupied orbital in Q3     ...    0.1 MB
Total memory requirement per |i>      ...    6.1 MB
Max. Number of orbitals possible      ...   1311
Number of orbitals treated per batch  ...     16
Number of batches to be done          ...      1
Batch   0: i=    6 ...    21

---------------------------------------
MP2 TOTAL ENERGY:     -264.932231904 Eh
---------------------------------------

The final MP2 gradient
  0:  -0.00483075  -0.03090808   0.01840823
  1:  -0.01435628   0.05550020  -0.02427106
  2:   0.01121244  -0.00750692   0.01330592
  3:   0.02063630  -0.02826342   0.00176283
  4:   0.00635099   0.05279183   0.01849038
  5:  -0.01889474  -0.04157118  -0.02787644
  6:   0.03201416   0.05039040   0.06968648
  7:   0.00793918   0.00536607  -0.04272310
  8:  -0.01292563  -0.02662603   0.00713672
  9:  -0.03548377   0.00332792  -0.01175733
 10:  -0.00435348  -0.01836140  -0.00064722
 11:   0.01269156  -0.01413939  -0.02151540

-----------------------------------
NORM OF THE MP2 GRADIENT:  0.163293
-----------------------------------

-------------------------   --------------------
FINAL SINGLE POINT ENERGY      -264.932231903914
-------------------------   --------------------


                            ***************************************
                            *     ORCA property calculations      *
                            ***************************************

                                    ---------------------
                                    Active property flags
                                    ---------------------
   (+) Dipole Moment


------------------------------------------------------------------------------
                       ORCA ELECTRIC PROPERTIES CALCULATION
------------------------------------------------------------------------------

Dipole Moment Calculation                       ... on
Quadrupole Moment Calculation                   ... off
Polarizability Calculation                      ... off
GBWName                                         ... 48mecn.sphere.gfn2.md.500k.prod1.3mecn.cm.17.dset.2mecn-orca.engrad-mp2.def2tzvp-14800.to.14847_job48.gbw
Electron density file                           ... 48mecn.sphere.gfn2.md.500k.prod1.3mecn.cm.17.dset.2mecn-orca.engrad-mp2.def2tzvp-14800.to.14847_job48.scfp
The origin for moment calculation is the CENTER OF MASS  = (-0.000001, -0.000048 -0.000048)

-------------
DIPOLE MOMENT
-------------
                                X             Y             Z
Electronic contribution:      0.05896       3.93134       3.69357
Nuclear contribution   :     -0.04488      -6.10149      -5.82424
                        -----------------------------------------
Total Dipole Moment    :      0.01407      -2.17015      -2.13068
                        -----------------------------------------
Magnitude (a.u.)       :      3.04130
Magnitude (Debye)      :      7.73038



--------------------
Rotational spectrum 
--------------------
 
Rotational constants in cm-1:     0.401042     0.011521     0.011325 
Rotational constants in MHz : 12022.931830   345.379236   339.503116 

 Dipole components along the rotational axes: 
x,y,z [a.u.] :    -2.658326     1.407974     0.447709 
x,y,z [Debye]:    -6.756927     3.578787     1.137986 

 

                         *** MP2 UNRELAXED DENSITY ***

------------------------------------------------------------------------------
                       ORCA ELECTRIC PROPERTIES CALCULATION
------------------------------------------------------------------------------

Dipole Moment Calculation                       ... on
Quadrupole Moment Calculation                   ... off
Polarizability Calculation                      ... off
GBWName                                         ... 48mecn.sphere.gfn2.md.500k.prod1.3mecn.cm.17.dset.2mecn-orca.engrad-mp2.def2tzvp-14800.to.14847_job48.gbw
Electron density file                           ... 48mecn.sphere.gfn2.md.500k.prod1.3mecn.cm.17.dset.2mecn-orca.engrad-mp2.def2tzvp-14800.to.14847_job48.pmp2ur
The origin for moment calculation is the CENTER OF MASS  = (-0.000001, -0.000048 -0.000048)

-------------
DIPOLE MOMENT
-------------
                                X             Y             Z
Electronic contribution:      0.06064       3.97337       3.73886
Nuclear contribution   :     -0.04488      -6.10149      -5.82424
                        -----------------------------------------
Total Dipole Moment    :      0.01575      -2.12813      -2.08538
                        -----------------------------------------
Magnitude (a.u.)       :      2.97959
Magnitude (Debye)      :      7.57353



--------------------
Rotational spectrum 
--------------------
 
Rotational constants in cm-1:     0.401042     0.011521     0.011325 
Rotational constants in MHz : 12022.931830   345.379236   339.503116 

 Dipole components along the rotational axes: 
x,y,z [a.u.] :    -2.603599     1.379815     0.441999 
x,y,z [Debye]:    -6.617824     3.507210     1.123472 

 

                           *** MP2 RELAXED DENSITY ***

------------------------------------------------------------------------------
                       ORCA ELECTRIC PROPERTIES CALCULATION
------------------------------------------------------------------------------

Dipole Moment Calculation                       ... on
Quadrupole Moment Calculation                   ... off
Polarizability Calculation                      ... off
GBWName                                         ... 48mecn.sphere.gfn2.md.500k.prod1.3mecn.cm.17.dset.2mecn-orca.engrad-mp2.def2tzvp-14800.to.14847_job48.gbw
Electron density file                           ... 48mecn.sphere.gfn2.md.500k.prod1.3mecn.cm.17.dset.2mecn-orca.engrad-mp2.def2tzvp-14800.to.14847_job48.pmp2re
The origin for moment calculation is the CENTER OF MASS  = (-0.000001, -0.000048 -0.000048)

-------------
DIPOLE MOMENT
-------------
                                X             Y             Z
Electronic contribution:      0.05545       4.09356       3.85084
Nuclear contribution   :     -0.04488      -6.10149      -5.82424
                        -----------------------------------------
Total Dipole Moment    :      0.01057      -2.00793      -1.97341
                        -----------------------------------------
Magnitude (a.u.)       :      2.81536
Magnitude (Debye)      :      7.15607



--------------------
Rotational spectrum 
--------------------
 
Rotational constants in cm-1:     0.401042     0.011521     0.011325 
Rotational constants in MHz : 12022.931830   345.379236   339.503116 

 Dipole components along the rotational axes: 
x,y,z [a.u.] :    -2.460879     1.304149     0.411715 
x,y,z [Debye]:    -6.255058     3.314884     1.046497 

 

Timings for individual modules:

Sum of individual times         ...       24.196 sec (=   0.403 min)
GTO integral calculation        ...        0.883 sec (=   0.015 min)   3.6 %
SCF iterations                  ...        7.242 sec (=   0.121 min)  29.9 %
MP2 module                      ...       16.071 sec (=   0.268 min)  66.4 %



                             ****ORCA TERMINATED NORMALLY****
TOTAL RUN TIME: 0 days 0 hours 21 minutes 40 seconds 734 msec
